
 Primary working directories    : /data/scratch/ndyonker/468468.pbs
 Secondary working directories  : /data/scratch/ndyonker/468468.pbs
 Wavefunction directory         : /home/ndyonker/wfu/
 Main file repository           : /data/scratch/ndyonker/468468.pbs/

 SHA1      : 34d8ac85455960de72dbdee61d212e2fba42fc0e
 NAME      : 2012.1.27
 ARCHNAME  : Linux/x86_64
 FC        : /public/apps/pgi/149/linux86-64/14.9/bin/pgf90
 FCVERSION : 14.9-0
 BLASLIB   : -L/public/apps/intel/2015/mkl/lib/intel64 -lmkl_intel_ilp64 -lmkl_sequential -lmkl_core
 id        : mem

 Nodes     nprocs
 n36          8
 ga_uses_ma=false, calling ma_init with nominal heap.
 GA-space will be limited to   8.0 MW (determined by -G option)

 Using customized tuning parameters: mindgm=7; mindgv=24; mindgc=1; mindgr=1; noblas=0; minvec=7
 default implementation of scratch files=sf  

  ***,CuCN
  memory,250,m;
  file,2,fecn4dpvqz.wfu,new
  gthresh,energy=1.d-9,optgrad=1.d-5
 
  print orbitals,basis
 
  mc=1.907269624,nc=1.16819227
 
  geometry={angstrom
            cu
            c,cu,mc
            n,c,nc,cu,180.0}
 
  basis=av5z-dk
  dkroll=1
  dkho=2
 
 label
   {rhf;wf,42,1,0;closed,12,4,4,1;start,atdens;save,2100.2;}
   {ccsd(t),maxit=200,shifts=0.5,shiftp=0.5,thrdis=1.0;diis,1,1,5,1;orbit,2100.2; }
   {optg,startcmd=label;numerical}
 
 

 Variables initialized (782), CPU time= 0.03 sec
 Commands  initialized (547), CPU time= 0.02 sec, 517 directives.
 Default parameters read. Elapsed time= 0.23 sec

 Checking input...
 Passed
1


                                         ***  PROGRAM SYSTEM MOLPRO  ***
                         Copyright, University College Cardiff Consultants Limited, 2008

                                    Version 2012.1 linked Sep  1 2015 17:13:12


 **********************************************************************************************************************************
 LABEL *                                                                                 
 Linux-2.6.32-504.16.2.el6.665g0000.x86_64/n36(x86_64) 64 bit mpp version                DATE: 13-Jun-16          TIME: 14:32:40  
 **********************************************************************************************************************************

 SHA1:             34d8ac85455960de72dbdee61d212e2fba42fc0e
 **********************************************************************************************************************************

 Variable memory set to  250000000 words,  buffer space   230000 words



 Permanent file  2  fecn4dpvqz.wfu   assigned.  Implementation=df  
 


 **********************************************************************************************************************************
 DATASETS  * FILE   NREC   LENGTH (MB)   RECORD NAMES
              2       1        0.03       500   
                                          VAR  

 PROGRAMS   *        TOTAL      FILE
 CPU TIMES  *         0.36      0.04
 REAL TIME  *         0.88 SEC
 DISK USED  *         0.26 MB      
 **********************************************************************************************************************************

 THRESHOLDS:

 ZERO    =  1.00D-12  ONEINT  =  1.00D-12  TWOINT  =  1.00D-11  PREFAC  =  1.00D-14  LOCALI  =  1.00D-09  EORDER  =  1.00D-04
 ENERGY  =  1.00D-09  ETEST   =  0.00D+00  EDENS   =  0.00D+00  THRDEDEF=  1.00D-06  GRADIENT=  1.00D-02  STEP    =  1.00D-03
 ORBITAL =  1.00D-05  CIVEC   =  1.00D-05  COEFF   =  1.00D-04  PRINTCI =  5.00D-02  PUNCHCI =  9.90D+01  OPTGRAD =  1.00D-05
 OPTENERG=  1.00D-06  OPTSTEP =  3.00D-04  THRGRAD =  1.00D-10  COMPRESS=  1.00D-11  VARMIN  =  1.00D-07  VARMAX  =  1.00D-03
 THRDOUB =  0.00D+00  THRDIV  =  1.00D-05  THRRED  =  1.00D-07  THRPSP  =  1.00D+00  THRDC   =  1.00D-10  THRCS   =  1.00D-10
 THRNRM  =  1.00D-08  THREQ   =  0.00D+00  THRDE   =  1.00D+00  THRREF  =  1.00D-05  SPARFAC =  1.00D+00  THRDLP  =  1.00D-07
 THRDIA  =  1.00D-10  THRDLS  =  1.00D-07  THRGPS  =  0.00D+00  THRKEX  =  0.00D+00  THRDIS  =  2.00D-01  THRVAR  =  1.00D-10
 THRLOC  =  1.00D-06  THRGAP  =  1.00D-06  THRLOCT = -1.00D+00  THRGAPT = -1.00D+00  THRORB  =  1.00D-06  THRMLTP =  0.00D+00
 THRCPQCI=  1.00D-10  KEXTA   =  0.00D+00  THRCOARS=  0.00D+00  SYMTOL  =  1.00D-06  GRADTOL =  1.00D-06  THROVL  =  1.00D-08
 THRORTH =  1.00D-08  GRID    =  1.00D-06  GRIDMAX =  1.00D-03  DTMAX   =  0.00D+00  THROCCDE=  1.00D-01  THROCCDE=  1.00D-01



 SETTING MC             =         1.90726962                                  
 SETTING NC             =         1.16819227                                  
 SETTING BASIS          =    AV5Z-DK
 SETTING DKROLL         =         1.00000000                                  
 SETTING DKHO           =         2.00000000                                  


 Recomputing integrals since basis changed


 Using spherical harmonics

 Library entry CU     S aug-cc-pV5Z-DK       selected for orbital group  1
 Library entry CU     P aug-cc-pV5Z-DK       selected for orbital group  1
 Library entry CU     D aug-cc-pV5Z-DK       selected for orbital group  1
 Library entry CU     F aug-cc-pV5Z-DK       selected for orbital group  1
 Library entry CU     G aug-cc-pV5Z-DK       selected for orbital group  1
 Library entry CU     H aug-cc-pV5Z-DK       selected for orbital group  1
 Library entry CU     I aug-cc-pV5Z-DK       selected for orbital group  1
 Library entry C      S aug-cc-pV5Z-DK       selected for orbital group  2
 Library entry C      P aug-cc-pV5Z-DK       selected for orbital group  2
 Library entry C      D aug-cc-pV5Z-DK       selected for orbital group  2
 Library entry C      F aug-cc-pV5Z-DK       selected for orbital group  2
 Library entry C      G aug-cc-pV5Z-DK       selected for orbital group  2
 Library entry C      H aug-cc-pV5Z-DK       selected for orbital group  2
 Library entry N      S aug-cc-pV5Z-DK       selected for orbital group  3
 Library entry N      P aug-cc-pV5Z-DK       selected for orbital group  3
 Library entry N      D aug-cc-pV5Z-DK       selected for orbital group  3
 Library entry N      F aug-cc-pV5Z-DK       selected for orbital group  3
 Library entry N      G aug-cc-pV5Z-DK       selected for orbital group  3
 Library entry N      H aug-cc-pV5Z-DK       selected for orbital group  3

1PROGRAM * SEWARD (Integral evaluation for generally contracted gaussian basis sets)     Author: Roland Lindh, 1990

 Geometry written to block  1 of record 700

 Orientation using atomic masses  
 Molecule type: Linear
 Symmetry elements: X,Y
 Rotational constants:       3.9618942      3.9618942      0.0000000 GHz  (calculated with average atomic masses)

 Point group  C2v 



 ATOMIC COORDINATES

 NR  ATOM    CHARGE       X              Y              Z

   1  CU     29.00    0.000000000    0.000000000   -1.392239514
   2  C       6.00    0.000000000    0.000000000    2.211977734
   3  N       7.00    0.000000000    0.000000000    4.419541193

 Bond lengths in Bohr (Angstrom)

 1-2  3.604217248  2-3  2.207563459
     ( 1.907269624)     ( 1.168192270)

 Bond angles

  1-2-3  179.99999915


 BASIS DATA

   Nr Sym  Nuc  Type         Exponents   Contraction coefficients

    1.1 A1    1  1s   193188000.000000     0.000011   -0.000006    0.000001    0.000000    0.000001   -0.000001
                                           0.000001    0.000001    0.000000
    2.1 A1             33945200.000000     0.000026   -0.000015    0.000003   -0.000001    0.000001   -0.000002
                                           0.000003    0.000003    0.000000
    3.1 A1              7510460.000000     0.000074   -0.000042    0.000009   -0.000002    0.000004   -0.000007
                                           0.000008    0.000010    0.000000
    4.1 A1              2001990.000000     0.000173   -0.000098    0.000022   -0.000004    0.000008   -0.000016
                                           0.000019    0.000023    0.000000
    5.1 A1               619378.000000     0.000384   -0.000216    0.000049   -0.000010    0.000019   -0.000036
                                           0.000043    0.000050    0.000000
    6.1 A1               215606.000000     0.000803   -0.000453    0.000102   -0.000021    0.000039   -0.000076
                                           0.000091    0.000104    0.000000
    7.1 A1                82327.100000     0.001649   -0.000931    0.000210   -0.000043    0.000081   -0.000158
                                           0.000185    0.000220    0.000000
    8.1 A1                33788.400000     0.003373   -0.001907    0.000432   -0.000088    0.000165   -0.000319
                                           0.000386    0.000434    0.000000
    9.1 A1                14670.000000     0.006990   -0.003968    0.000902   -0.000184    0.000351   -0.000683
                                           0.000787    0.000963    0.000000
                           6657.440000     0.014707   -0.008403    0.001920   -0.000392    0.000728   -0.001403
                                           0.001733    0.001883    0.000000
                           3130.260000     0.031092   -0.017975    0.004141   -0.000846    0.001625   -0.003175
                                           0.003581    0.004546    0.000000
                           1515.610000     0.064023   -0.037816    0.008863   -0.001811    0.003336   -0.006406
                                           0.008098    0.008471    0.000000
                            752.588000     0.122312   -0.075307    0.018166   -0.003717    0.007208   -0.014148
                                           0.015586    0.020700    0.000000
                            382.249000     0.202102   -0.134730    0.034338   -0.007029    0.012782   -0.024461
                                           0.032166    0.031679    0.000000
                            198.237000     0.257869   -0.200480    0.055843   -0.011472    0.022832   -0.045392
                                           0.047204    0.070122    0.000000
                            104.810000     0.210521   -0.210366    0.066561   -0.013702    0.023341   -0.043647
                                           0.068809    0.049236    0.000000
                             56.388500     0.091182   -0.080998    0.025536   -0.005346    0.015953   -0.035937
                                           0.008728    0.082739    0.000000
                             30.783000     0.058113    0.201901   -0.105311    0.022290   -0.054341    0.115801
                                          -0.063680   -0.221669    0.000000
                             16.977000     0.099826    0.468479   -0.319878    0.069679   -0.113637    0.218918
                                          -0.428499   -0.317028    0.000000
                              9.397250     0.078258    0.371650   -0.355691    0.081041   -0.209979    0.533972
                                          -0.749107   -1.951038    0.000000
                              5.172380     0.021244    0.100515    0.011304   -0.007158    0.094143   -0.366739
                                           0.966357    4.765535    0.000000
                              2.795350     0.001491    0.006558    0.474065   -0.126316    0.242268   -0.995036
                                           2.547361   -0.895265    0.000000
                              1.458900    -0.000080   -0.001464    0.553355   -0.194626    0.608756   -0.791666
                                          -3.389408   -5.760726    0.000000
                              0.728711    -0.000087   -0.000755    0.208236   -0.152750   -0.234379    2.217405
                                          -0.155857    6.463696    0.000000
                              0.237642     0.000000   -0.000043    0.011668    0.115424   -1.141675    0.294667
                                           3.836012   -4.096010    0.000000
                              0.127821     0.000000    0.000020   -0.002622    0.399144   -0.178254   -1.799686
                                          -3.097215    0.747966    0.000000
                              0.061815     0.000000   -0.000013    0.002691    0.479980    0.403548    0.102828
                                          -0.688271    2.490527    0.000000
                              0.029303     0.000000    0.000001    0.000102    0.161665    0.722029    0.879273
                                           1.251600   -1.611681    1.000000
   10.1 A1    1  1s           0.013890     1.000000
   11.1 A1    1  2pz     110294.000000     0.000026   -0.000009    0.000002    0.000004    0.000007    0.000009
                                           0.000012    0.000000
   12.1 A1                26939.100000     0.000075   -0.000027    0.000005    0.000010    0.000020    0.000026
                                           0.000037    0.000000
   13.1 A1                 8550.710000     0.000281   -0.000102    0.000020    0.000040    0.000079    0.000090
                                           0.000129    0.000000
   14.1 A1                 3246.190000     0.000918   -0.000334    0.000065    0.000126    0.000244    0.000333
                                           0.000460    0.000000
   15.1 A1                 1388.460000     0.002992   -0.001091    0.000214    0.000432    0.000860    0.000935
                                           0.001352    0.000000
   16.1 A1                  642.474000     0.009087   -0.003333    0.000644    0.001255    0.002418    0.003383
                                           0.004672    0.000000
   17.1 A1                  313.570000     0.025582   -0.009484    0.001864    0.003774    0.007532    0.008079
                                           0.011799    0.000000
   18.1 A1                  159.161000     0.064348   -0.024352    0.004714    0.009168    0.017653    0.025098
                                           0.034968    0.000000
                             83.441400     0.137645   -0.053745    0.010630    0.021605    0.043352    0.045111
                                           0.067337    0.000000
                             45.019600     0.234952   -0.095363    0.018476    0.035560    0.067691    0.103227
                                           0.144025    0.000000
                             24.889400     0.304784   -0.130112    0.026298    0.055233    0.115202    0.102614
                                           0.171251    0.000000
                             13.973100     0.264808   -0.105639    0.019653    0.035475    0.073770    0.234554
                                           0.465664    0.000000
                              7.825710     0.124196    0.050812   -0.011148   -0.013968   -0.023005   -0.302432
                                          -1.393296    0.000000
                              4.286320     0.022235    0.281226   -0.068640   -0.167702   -0.512136   -0.840999
                                          -0.856846    0.000000
                              2.290340    -0.000900    0.402199   -0.091568   -0.179280   -0.381675   -0.161194
                                           3.006710    0.000000
                              1.193420    -0.001782    0.307807   -0.093684   -0.159873    0.258869    2.092055
                                          -1.352126    0.000000
                              0.593765    -0.000695    0.109630    0.039066    0.257842    1.057618   -1.178964
                                          -1.125582    0.000000
                              0.224438    -0.000037    0.009171    0.340220    0.646755   -0.308897   -0.797340
                                           1.807053    0.000000
                              0.089054    -0.000001   -0.000438    0.526745    0.274603   -0.605057    1.010530
                                          -1.060530    0.000000
                              0.035159    -0.000001    0.000241    0.250302    0.006850    0.007616   -0.023493
                                          -0.008458    1.000000
   19.1 A1    1  2pz          0.013880     1.000000
   20.1 A1    1  3d0        772.568000     0.000133
                            226.925000     0.001205
                             87.144300     0.006764
                             38.213200     0.025816
                             17.961200     0.072948
                              8.856150     0.156426
                              4.463442     0.243720
                              2.237376     0.286780
                              1.098654     0.268943
                              0.522590     0.199472
                              0.236853     0.102882
                              0.098875     0.023994
   21.1 A1    1  3d2+       772.568000     0.000133
                            226.925000     0.001205
                             87.144300     0.006764
                             38.213200     0.025816
                             17.961200     0.072948
                              8.856150     0.156426
                              4.463442     0.243720
                              2.237376     0.286780
                              1.098654     0.268943
                              0.522590     0.199472
                              0.236853     0.102882
                              0.098875     0.023994
   22.1 A1    1  3d0        772.568000    -0.000165
                            226.925000    -0.001498
                             87.144300    -0.008444
                             38.213200    -0.032417
                             17.961200    -0.093852
                              8.856150    -0.206566
                              4.463442    -0.291176
                              2.237376    -0.180796
                              1.098654     0.135887
                              0.522590     0.384256
                              0.236853     0.364546
                              0.098875     0.141615
   23.1 A1    1  3d2+       772.568000    -0.000165
                            226.925000    -0.001498
                             87.144300    -0.008444
                             38.213200    -0.032417
                             17.961200    -0.093852
                              8.856150    -0.206566
                              4.463442    -0.291176
                              2.237376    -0.180796
                              1.098654     0.135887
                              0.522590     0.384256
                              0.236853     0.364546
                              0.098875     0.141615
   24.1 A1    1  3d0        772.568000     0.000197
                            226.925000     0.001822
                             87.144300     0.010210
                             38.213200     0.039845
                             17.961200     0.117810
                              8.856150     0.275601
                              4.463442     0.289781
                              2.237376    -0.193995
                              1.098654    -0.583037
                              0.522590    -0.169699
                              0.236853     0.517140
                              0.098875     0.378024
   25.1 A1    1  3d2+       772.568000     0.000197
                            226.925000     0.001822
                             87.144300     0.010210
                             38.213200     0.039845
                             17.961200     0.117810
                              8.856150     0.275601
                              4.463442     0.289781
                              2.237376    -0.193995
                              1.098654    -0.583037
                              0.522590    -0.169699
                              0.236853     0.517140
                              0.098875     0.378024
   26.1 A1    1  3d0        772.568000    -0.000276
                            226.925000    -0.002778
                             87.144300    -0.014619
                             38.213200    -0.061104
                             17.961200    -0.181860
                              8.856150    -0.487597
                              4.463442    -0.026797
                              2.237376     0.995518
                              1.098654    -0.067545
                              0.522590    -0.927390
                              0.236853     0.235713
                              0.098875     0.512677
   27.1 A1    1  3d2+       772.568000    -0.000276
                            226.925000    -0.002778
                             87.144300    -0.014619
                             38.213200    -0.061104
                             17.961200    -0.181860
                              8.856150    -0.487597
                              4.463442    -0.026797
                              2.237376     0.995518
                              1.098654    -0.067545
                              0.522590    -0.927390
                              0.236853     0.235713
                              0.098875     0.512677
   28.1 A1    1  3d0        772.568000     0.000398
                            226.925000     0.003378
                             87.144300     0.020602
                             38.213200     0.076726
                             17.961200     0.305972
                              8.856150     0.626476
                              4.463442    -1.172997
                              2.237376    -0.305371
                              1.098654     1.628013
                              0.522590    -0.995261
                              0.236853    -0.406277
                              0.098875     0.722443
   29.1 A1    1  3d2+       772.568000     0.000398
                            226.925000     0.003378
                             87.144300     0.020602
                             38.213200     0.076726
                             17.961200     0.305972
                              8.856150     0.626476
                              4.463442    -1.172997
                              2.237376    -0.305371
                              1.098654     1.628013
                              0.522590    -0.995261
                              0.236853    -0.406277
                              0.098875     0.722443
   30.1 A1    1  3d0        772.568000     0.000000
                            226.925000     0.000000
                             87.144300     0.000000
                             38.213200     0.000000
                             17.961200     0.000000
                              8.856150     0.000000
                              4.463442     0.000000
                              2.237376     0.000000
                              1.098654     0.000000
                              0.522590     0.000000
                              0.236853     0.000000
                              0.098875     1.000000
   31.1 A1    1  3d2+       772.568000     0.000000
                            226.925000     0.000000
                             87.144300     0.000000
                             38.213200     0.000000
                             17.961200     0.000000
                              8.856150     0.000000
                              4.463442     0.000000
                              2.237376     0.000000
                              1.098654     0.000000
                              0.522590     0.000000
                              0.236853     0.000000
                              0.098875     1.000000
   32.1 A1    1  3d0          0.041280     1.000000
   33.1 A1    1  3d2+         0.041280     1.000000
   34.1 A1    1  4f0         10.870300     1.000000
   35.1 A1    1  4f2+        10.870300     1.000000
   36.1 A1    1  4f0          3.881200     1.000000
   37.1 A1    1  4f2+         3.881200     1.000000
   38.1 A1    1  4f0          1.385800     1.000000
   39.1 A1    1  4f2+         1.385800     1.000000
   40.1 A1    1  4f0          0.494800     1.000000
   41.1 A1    1  4f2+         0.494800     1.000000
   42.1 A1    1  4f0          0.171020     1.000000
   43.1 A1    1  4f2+         0.171020     1.000000
   44.1 A1    1  5g0          8.783100     1.000000
   45.1 A1    1  5g4+         8.783100     1.000000
   46.1 A1    1  5g2+         8.783100     1.000000
   47.1 A1    1  5g0          3.090700     1.000000
   48.1 A1    1  5g4+         3.090700     1.000000
   49.1 A1    1  5g2+         3.090700     1.000000
   50.1 A1    1  5g0          1.087600     1.000000
   51.1 A1    1  5g4+         1.087600     1.000000
   52.1 A1    1  5g2+         1.087600     1.000000
   53.1 A1    1  5g0          0.418600     1.000000
   54.1 A1    1  5g4+         0.418600     1.000000
   55.1 A1    1  5g2+         0.418600     1.000000
   56.1 A1    1  6h2+         6.474800     1.000000
   57.1 A1    1  6h4+         6.474800     1.000000
   58.1 A1    1  6h0          6.474800     1.000000
   59.1 A1    1  6h2+         2.067800     1.000000
   60.1 A1    1  6h4+         2.067800     1.000000
   61.1 A1    1  6h0          2.067800     1.000000
   62.1 A1    1  6h2+         0.881500     1.000000
   63.1 A1    1  6h4+         0.881500     1.000000
   64.1 A1    1  6h0          0.881500     1.000000
   65.1 A1    1  7i6+         4.899800     1.000000
   66.1 A1    1  7i4+         4.899800     1.000000
   67.1 A1    1  7i2+         4.899800     1.000000
   68.1 A1    1  7i0          4.899800     1.000000
   69.1 A1    1  7i6+         2.394720     1.000000
   70.1 A1    1  7i4+         2.394720     1.000000
   71.1 A1    1  7i2+         2.394720     1.000000
   72.1 A1    1  7i0          2.394720     1.000000
   73.1 A1    2  1s       96770.000000     0.000063   -0.000013    0.000000    0.000000    0.000000    0.000000
   74.1 A1                14500.000000     0.000263   -0.000056    0.000000    0.000000    0.000000    0.000000
   75.1 A1                 3300.000000     0.001107   -0.000236    0.000000    0.000000    0.000000    0.000000
   76.1 A1                  935.800000     0.004327   -0.000928    0.000000    0.000000    0.000000    0.000000
   77.1 A1                  306.200000     0.015059   -0.003234    0.000000    0.000000    0.000000    0.000000
   78.1 A1                  111.300000     0.045557   -0.010028    0.000000    0.000000    0.000000    0.000000
                             43.900000     0.116765   -0.026462    0.000000    0.000000    0.000000    0.000000
                             18.400000     0.240378   -0.060092    0.000000    0.000000    0.000000    0.000000
                              8.054000     0.358648   -0.106865    0.000000    0.000000    0.000000    0.000000
                              3.637000     0.293618   -0.144079    0.000000    0.000000    0.000000    0.000000
                              1.656000     0.077547   -0.024251    1.000000    0.000000    0.000000    0.000000
                              0.633300     0.002324    0.349394    0.000000    1.000000    0.000000    0.000000
                              0.254500     0.000509    0.558572    0.000000    0.000000    1.000000    0.000000
                              0.101900     0.000029    0.227677    0.000000    0.000000    0.000000    1.000000
   79.1 A1    2  1s           0.039400     1.000000
   80.1 A1    2  2pz        101.800000     0.000906    0.000000    0.000000    0.000000    0.000000
   81.1 A1                   24.040000     0.006999    0.000000    0.000000    0.000000    0.000000
   82.1 A1                    7.571000     0.031702    0.000000    0.000000    0.000000    0.000000
   83.1 A1                    2.732000     0.104029    0.000000    0.000000    0.000000    0.000000
   84.1 A1                    1.085000     0.241614    1.000000    0.000000    0.000000    0.000000
                              0.449600     0.371855    0.000000    1.000000    0.000000    0.000000
                              0.187600     0.354222    0.000000    0.000000    1.000000    0.000000
                              0.076060     0.131661    0.000000    0.000000    0.000000    1.000000
   85.1 A1    2  2pz          0.027200     1.000000
   86.1 A1    2  3d0          3.134000     1.000000
   87.1 A1    2  3d2+         3.134000     1.000000
   88.1 A1    2  3d0          1.233000     1.000000
   89.1 A1    2  3d2+         1.233000     1.000000
   90.1 A1    2  3d0          0.485000     1.000000
   91.1 A1    2  3d2+         0.485000     1.000000
   92.1 A1    2  3d0          0.191000     1.000000
   93.1 A1    2  3d2+         0.191000     1.000000
   94.1 A1    2  3d0          0.070100     1.000000
   95.1 A1    2  3d2+         0.070100     1.000000
   96.1 A1    2  4f0          2.006000     1.000000
   97.1 A1    2  4f2+         2.006000     1.000000
   98.1 A1    2  4f0          0.838000     1.000000
   99.1 A1    2  4f2+         0.838000     1.000000
  100.1 A1    2  4f0          0.350000     1.000000
  101.1 A1    2  4f2+         0.350000     1.000000
  102.1 A1    2  4f0          0.138000     1.000000
  103.1 A1    2  4f2+         0.138000     1.000000
  104.1 A1    2  5g0          1.753000     1.000000
  105.1 A1    2  5g4+         1.753000     1.000000
  106.1 A1    2  5g2+         1.753000     1.000000
  107.1 A1    2  5g0          0.678000     1.000000
  108.1 A1    2  5g4+         0.678000     1.000000
  109.1 A1    2  5g2+         0.678000     1.000000
  110.1 A1    2  5g0          0.319000     1.000000
  111.1 A1    2  5g4+         0.319000     1.000000
  112.1 A1    2  5g2+         0.319000     1.000000
  113.1 A1    2  6h2+         1.259000     1.000000
  114.1 A1    2  6h4+         1.259000     1.000000
  115.1 A1    2  6h0          1.259000     1.000000
  116.1 A1    2  6h2+         0.586000     1.000000
  117.1 A1    2  6h4+         0.586000     1.000000
  118.1 A1    2  6h0          0.586000     1.000000
  119.1 A1    3  1s      129200.000000     0.000073   -0.000016    0.000000    0.000000    0.000000    0.000000
  120.1 A1                19350.000000     0.000292   -0.000064    0.000000    0.000000    0.000000    0.000000
  121.1 A1                 4404.000000     0.001181   -0.000260    0.000000    0.000000    0.000000    0.000000
  122.1 A1                 1248.000000     0.004524   -0.001004    0.000000    0.000000    0.000000    0.000000
  123.1 A1                  408.000000     0.015658   -0.003484    0.000000    0.000000    0.000000    0.000000
  124.1 A1                  148.200000     0.047224   -0.010766    0.000000    0.000000    0.000000    0.000000
                             58.500000     0.120479   -0.028407    0.000000    0.000000    0.000000    0.000000
                             24.590000     0.245870   -0.064155    0.000000    0.000000    0.000000    0.000000
                             10.810000     0.361153   -0.113991    0.000000    0.000000    0.000000    0.000000
                              4.882000     0.286830   -0.146833    0.000000    0.000000    0.000000    0.000000
                              2.195000     0.070018   -0.006673    1.000000    0.000000    0.000000    0.000000
                              0.871500     0.001820    0.366689    0.000000    1.000000    0.000000    0.000000
                              0.350400     0.000839    0.547662    0.000000    0.000000    1.000000    0.000000
                              0.139700    -0.000008    0.216040    0.000000    0.000000    0.000000    1.000000
  125.1 A1    3  1s           0.051800     1.000000
  126.1 A1    3  2pz        147.000000     0.000913    0.000000    0.000000    0.000000    0.000000
  127.1 A1                   34.760000     0.007118    0.000000    0.000000    0.000000    0.000000
  128.1 A1                   11.000000     0.032874    0.000000    0.000000    0.000000    0.000000
  129.1 A1                    3.995000     0.108258    0.000000    0.000000    0.000000    0.000000
  130.1 A1                    1.587000     0.248089    1.000000    0.000000    0.000000    0.000000
                              0.653300     0.374398    0.000000    1.000000    0.000000    0.000000
                              0.268600     0.348427    0.000000    0.000000    1.000000    0.000000
                              0.106700     0.128431    0.000000    0.000000    0.000000    1.000000
  131.1 A1    3  2pz          0.036900     1.000000
  132.1 A1    3  3d0          4.647000     1.000000
  133.1 A1    3  3d2+         4.647000     1.000000
  134.1 A1    3  3d0          1.813000     1.000000
  135.1 A1    3  3d2+         1.813000     1.000000
  136.1 A1    3  3d0          0.707000     1.000000
  137.1 A1    3  3d2+         0.707000     1.000000
  138.1 A1    3  3d0          0.276000     1.000000
  139.1 A1    3  3d2+         0.276000     1.000000
  140.1 A1    3  3d0          0.097100     1.000000
  141.1 A1    3  3d2+         0.097100     1.000000
  142.1 A1    3  4f0          2.942000     1.000000
  143.1 A1    3  4f2+         2.942000     1.000000
  144.1 A1    3  4f0          1.204000     1.000000
  145.1 A1    3  4f2+         1.204000     1.000000
  146.1 A1    3  4f0          0.493000     1.000000
  147.1 A1    3  4f2+         0.493000     1.000000
  148.1 A1    3  4f0          0.192000     1.000000
  149.1 A1    3  4f2+         0.192000     1.000000
  150.1 A1    3  5g0          2.511000     1.000000
  151.1 A1    3  5g4+         2.511000     1.000000
  152.1 A1    3  5g2+         2.511000     1.000000
  153.1 A1    3  5g0          0.942000     1.000000
  154.1 A1    3  5g4+         0.942000     1.000000
  155.1 A1    3  5g2+         0.942000     1.000000
  156.1 A1    3  5g0          0.436000     1.000000
  157.1 A1    3  5g4+         0.436000     1.000000
  158.1 A1    3  5g2+         0.436000     1.000000
  159.1 A1    3  6h2+         1.768000     1.000000
  160.1 A1    3  6h4+         1.768000     1.000000
  161.1 A1    3  6h0          1.768000     1.000000
  162.1 A1    3  6h2+         0.788000     1.000000
  163.1 A1    3  6h4+         0.788000     1.000000
  164.1 A1    3  6h0          0.788000     1.000000
    1.2 B1    1  2px     110294.000000     0.000026   -0.000009    0.000002    0.000004    0.000007    0.000009
                                           0.000012    0.000000
    2.2 B1                26939.100000     0.000075   -0.000027    0.000005    0.000010    0.000020    0.000026
                                           0.000037    0.000000
    3.2 B1                 8550.710000     0.000281   -0.000102    0.000020    0.000040    0.000079    0.000090
                                           0.000129    0.000000
    4.2 B1                 3246.190000     0.000918   -0.000334    0.000065    0.000126    0.000244    0.000333
                                           0.000460    0.000000
    5.2 B1                 1388.460000     0.002992   -0.001091    0.000214    0.000432    0.000860    0.000935
                                           0.001352    0.000000
    6.2 B1                  642.474000     0.009087   -0.003333    0.000644    0.001255    0.002418    0.003383
                                           0.004672    0.000000
    7.2 B1                  313.570000     0.025582   -0.009484    0.001864    0.003774    0.007532    0.008079
                                           0.011799    0.000000
    8.2 B1                  159.161000     0.064348   -0.024352    0.004714    0.009168    0.017653    0.025098
                                           0.034968    0.000000
                             83.441400     0.137645   -0.053745    0.010630    0.021605    0.043352    0.045111
                                           0.067337    0.000000
                             45.019600     0.234952   -0.095363    0.018476    0.035560    0.067691    0.103227
                                           0.144025    0.000000
                             24.889400     0.304784   -0.130112    0.026298    0.055233    0.115202    0.102614
                                           0.171251    0.000000
                             13.973100     0.264808   -0.105639    0.019653    0.035475    0.073770    0.234554
                                           0.465664    0.000000
                              7.825710     0.124196    0.050812   -0.011148   -0.013968   -0.023005   -0.302432
                                          -1.393296    0.000000
                              4.286320     0.022235    0.281226   -0.068640   -0.167702   -0.512136   -0.840999
                                          -0.856846    0.000000
                              2.290340    -0.000900    0.402199   -0.091568   -0.179280   -0.381675   -0.161194
                                           3.006710    0.000000
                              1.193420    -0.001782    0.307807   -0.093684   -0.159873    0.258869    2.092055
                                          -1.352126    0.000000
                              0.593765    -0.000695    0.109630    0.039066    0.257842    1.057618   -1.178964
                                          -1.125582    0.000000
                              0.224438    -0.000037    0.009171    0.340220    0.646755   -0.308897   -0.797340
                                           1.807053    0.000000
                              0.089054    -0.000001   -0.000438    0.526745    0.274603   -0.605057    1.010530
                                          -1.060530    0.000000
                              0.035159    -0.000001    0.000241    0.250302    0.006850    0.007616   -0.023493
                                          -0.008458    1.000000
    9.2 B1    1  2px          0.013880     1.000000
   10.2 B1    1  3d1+       772.568000     0.000133   -0.000165    0.000197   -0.000276    0.000398    0.000000
   11.2 B1                  226.925000     0.001205   -0.001498    0.001822   -0.002778    0.003378    0.000000
   12.2 B1                   87.144300     0.006764   -0.008444    0.010210   -0.014619    0.020602    0.000000
   13.2 B1                   38.213200     0.025816   -0.032417    0.039845   -0.061104    0.076726    0.000000
   14.2 B1                   17.961200     0.072948   -0.093852    0.117810   -0.181860    0.305972    0.000000
   15.2 B1                    8.856150     0.156426   -0.206566    0.275601   -0.487597    0.626476    0.000000
                              4.463442     0.243720   -0.291176    0.289781   -0.026797   -1.172997    0.000000
                              2.237376     0.286780   -0.180796   -0.193995    0.995518   -0.305371    0.000000
                              1.098654     0.268943    0.135887   -0.583037   -0.067545    1.628013    0.000000
                              0.522590     0.199472    0.384256   -0.169699   -0.927390   -0.995261    0.000000
                              0.236853     0.102882    0.364546    0.517140    0.235713   -0.406277    0.000000
                              0.098875     0.023994    0.141615    0.378024    0.512677    0.722443    1.000000
   16.2 B1    1  3d1+         0.041280     1.000000
   17.2 B1    1  4f1+        10.870300     1.000000
   18.2 B1    1  4f3+        10.870300     1.000000
   19.2 B1    1  4f1+         3.881200     1.000000
   20.2 B1    1  4f3+         3.881200     1.000000
   21.2 B1    1  4f1+         1.385800     1.000000
   22.2 B1    1  4f3+         1.385800     1.000000
   23.2 B1    1  4f1+         0.494800     1.000000
   24.2 B1    1  4f3+         0.494800     1.000000
   25.2 B1    1  4f1+         0.171020     1.000000
   26.2 B1    1  4f3+         0.171020     1.000000
   27.2 B1    1  5g1+         8.783100     1.000000
   28.2 B1    1  5g3+         8.783100     1.000000
   29.2 B1    1  5g1+         3.090700     1.000000
   30.2 B1    1  5g3+         3.090700     1.000000
   31.2 B1    1  5g1+         1.087600     1.000000
   32.2 B1    1  5g3+         1.087600     1.000000
   33.2 B1    1  5g1+         0.418600     1.000000
   34.2 B1    1  5g3+         0.418600     1.000000
   35.2 B1    1  6h1+         6.474800     1.000000
   36.2 B1    1  6h3+         6.474800     1.000000
   37.2 B1    1  6h5+         6.474800     1.000000
   38.2 B1    1  6h1+         2.067800     1.000000
   39.2 B1    1  6h3+         2.067800     1.000000
   40.2 B1    1  6h5+         2.067800     1.000000
   41.2 B1    1  6h1+         0.881500     1.000000
   42.2 B1    1  6h3+         0.881500     1.000000
   43.2 B1    1  6h5+         0.881500     1.000000
   44.2 B1    1  7i5+         4.899800     1.000000
   45.2 B1    1  7i3+         4.899800     1.000000
   46.2 B1    1  7i1+         4.899800     1.000000
   47.2 B1    1  7i5+         2.394720     1.000000
   48.2 B1    1  7i3+         2.394720     1.000000
   49.2 B1    1  7i1+         2.394720     1.000000
   50.2 B1    2  2px        101.800000     0.000906    0.000000    0.000000    0.000000    0.000000
   51.2 B1                   24.040000     0.006999    0.000000    0.000000    0.000000    0.000000
   52.2 B1                    7.571000     0.031702    0.000000    0.000000    0.000000    0.000000
   53.2 B1                    2.732000     0.104029    0.000000    0.000000    0.000000    0.000000
   54.2 B1                    1.085000     0.241614    1.000000    0.000000    0.000000    0.000000
                              0.449600     0.371855    0.000000    1.000000    0.000000    0.000000
                              0.187600     0.354222    0.000000    0.000000    1.000000    0.000000
                              0.076060     0.131661    0.000000    0.000000    0.000000    1.000000
   55.2 B1    2  2px          0.027200     1.000000
   56.2 B1    2  3d1+         3.134000     1.000000
   57.2 B1    2  3d1+         1.233000     1.000000
   58.2 B1    2  3d1+         0.485000     1.000000
   59.2 B1    2  3d1+         0.191000     1.000000
   60.2 B1    2  3d1+         0.070100     1.000000
   61.2 B1    2  4f1+         2.006000     1.000000
   62.2 B1    2  4f3+         2.006000     1.000000
   63.2 B1    2  4f1+         0.838000     1.000000
   64.2 B1    2  4f3+         0.838000     1.000000
   65.2 B1    2  4f1+         0.350000     1.000000
   66.2 B1    2  4f3+         0.350000     1.000000
   67.2 B1    2  4f1+         0.138000     1.000000
   68.2 B1    2  4f3+         0.138000     1.000000
   69.2 B1    2  5g1+         1.753000     1.000000
   70.2 B1    2  5g3+         1.753000     1.000000
   71.2 B1    2  5g1+         0.678000     1.000000
   72.2 B1    2  5g3+         0.678000     1.000000
   73.2 B1    2  5g1+         0.319000     1.000000
   74.2 B1    2  5g3+         0.319000     1.000000
   75.2 B1    2  6h1+         1.259000     1.000000
   76.2 B1    2  6h3+         1.259000     1.000000
   77.2 B1    2  6h5+         1.259000     1.000000
   78.2 B1    2  6h1+         0.586000     1.000000
   79.2 B1    2  6h3+         0.586000     1.000000
   80.2 B1    2  6h5+         0.586000     1.000000
   81.2 B1    3  2px        147.000000     0.000913    0.000000    0.000000    0.000000    0.000000
   82.2 B1                   34.760000     0.007118    0.000000    0.000000    0.000000    0.000000
   83.2 B1                   11.000000     0.032874    0.000000    0.000000    0.000000    0.000000
   84.2 B1                    3.995000     0.108258    0.000000    0.000000    0.000000    0.000000
   85.2 B1                    1.587000     0.248089    1.000000    0.000000    0.000000    0.000000
                              0.653300     0.374398    0.000000    1.000000    0.000000    0.000000
                              0.268600     0.348427    0.000000    0.000000    1.000000    0.000000
                              0.106700     0.128431    0.000000    0.000000    0.000000    1.000000
   86.2 B1    3  2px          0.036900     1.000000
   87.2 B1    3  3d1+         4.647000     1.000000
   88.2 B1    3  3d1+         1.813000     1.000000
   89.2 B1    3  3d1+         0.707000     1.000000
   90.2 B1    3  3d1+         0.276000     1.000000
   91.2 B1    3  3d1+         0.097100     1.000000
   92.2 B1    3  4f1+         2.942000     1.000000
   93.2 B1    3  4f3+         2.942000     1.000000
   94.2 B1    3  4f1+         1.204000     1.000000
   95.2 B1    3  4f3+         1.204000     1.000000
   96.2 B1    3  4f1+         0.493000     1.000000
   97.2 B1    3  4f3+         0.493000     1.000000
   98.2 B1    3  4f1+         0.192000     1.000000
   99.2 B1    3  4f3+         0.192000     1.000000
  100.2 B1    3  5g1+         2.511000     1.000000
  101.2 B1    3  5g3+         2.511000     1.000000
  102.2 B1    3  5g1+         0.942000     1.000000
  103.2 B1    3  5g3+         0.942000     1.000000
  104.2 B1    3  5g1+         0.436000     1.000000
  105.2 B1    3  5g3+         0.436000     1.000000
  106.2 B1    3  6h1+         1.768000     1.000000
  107.2 B1    3  6h3+         1.768000     1.000000
  108.2 B1    3  6h5+         1.768000     1.000000
  109.2 B1    3  6h1+         0.788000     1.000000
  110.2 B1    3  6h3+         0.788000     1.000000
  111.2 B1    3  6h5+         0.788000     1.000000
    1.3 B2    1  2py     110294.000000     0.000026   -0.000009    0.000002    0.000004    0.000007    0.000009
                                           0.000012    0.000000
    2.3 B2                26939.100000     0.000075   -0.000027    0.000005    0.000010    0.000020    0.000026
                                           0.000037    0.000000
    3.3 B2                 8550.710000     0.000281   -0.000102    0.000020    0.000040    0.000079    0.000090
                                           0.000129    0.000000
    4.3 B2                 3246.190000     0.000918   -0.000334    0.000065    0.000126    0.000244    0.000333
                                           0.000460    0.000000
    5.3 B2                 1388.460000     0.002992   -0.001091    0.000214    0.000432    0.000860    0.000935
                                           0.001352    0.000000
    6.3 B2                  642.474000     0.009087   -0.003333    0.000644    0.001255    0.002418    0.003383
                                           0.004672    0.000000
    7.3 B2                  313.570000     0.025582   -0.009484    0.001864    0.003774    0.007532    0.008079
                                           0.011799    0.000000
    8.3 B2                  159.161000     0.064348   -0.024352    0.004714    0.009168    0.017653    0.025098
                                           0.034968    0.000000
                             83.441400     0.137645   -0.053745    0.010630    0.021605    0.043352    0.045111
                                           0.067337    0.000000
                             45.019600     0.234952   -0.095363    0.018476    0.035560    0.067691    0.103227
                                           0.144025    0.000000
                             24.889400     0.304784   -0.130112    0.026298    0.055233    0.115202    0.102614
                                           0.171251    0.000000
                             13.973100     0.264808   -0.105639    0.019653    0.035475    0.073770    0.234554
                                           0.465664    0.000000
                              7.825710     0.124196    0.050812   -0.011148   -0.013968   -0.023005   -0.302432
                                          -1.393296    0.000000
                              4.286320     0.022235    0.281226   -0.068640   -0.167702   -0.512136   -0.840999
                                          -0.856846    0.000000
                              2.290340    -0.000900    0.402199   -0.091568   -0.179280   -0.381675   -0.161194
                                           3.006710    0.000000
                              1.193420    -0.001782    0.307807   -0.093684   -0.159873    0.258869    2.092055
                                          -1.352126    0.000000
                              0.593765    -0.000695    0.109630    0.039066    0.257842    1.057618   -1.178964
                                          -1.125582    0.000000
                              0.224438    -0.000037    0.009171    0.340220    0.646755   -0.308897   -0.797340
                                           1.807053    0.000000
                              0.089054    -0.000001   -0.000438    0.526745    0.274603   -0.605057    1.010530
                                          -1.060530    0.000000
                              0.035159    -0.000001    0.000241    0.250302    0.006850    0.007616   -0.023493
                                          -0.008458    1.000000
    9.3 B2    1  2py          0.013880     1.000000
   10.3 B2    1  3d1-       772.568000     0.000133   -0.000165    0.000197   -0.000276    0.000398    0.000000
   11.3 B2                  226.925000     0.001205   -0.001498    0.001822   -0.002778    0.003378    0.000000
   12.3 B2                   87.144300     0.006764   -0.008444    0.010210   -0.014619    0.020602    0.000000
   13.3 B2                   38.213200     0.025816   -0.032417    0.039845   -0.061104    0.076726    0.000000
   14.3 B2                   17.961200     0.072948   -0.093852    0.117810   -0.181860    0.305972    0.000000
   15.3 B2                    8.856150     0.156426   -0.206566    0.275601   -0.487597    0.626476    0.000000
                              4.463442     0.243720   -0.291176    0.289781   -0.026797   -1.172997    0.000000
                              2.237376     0.286780   -0.180796   -0.193995    0.995518   -0.305371    0.000000
                              1.098654     0.268943    0.135887   -0.583037   -0.067545    1.628013    0.000000
                              0.522590     0.199472    0.384256   -0.169699   -0.927390   -0.995261    0.000000
                              0.236853     0.102882    0.364546    0.517140    0.235713   -0.406277    0.000000
                              0.098875     0.023994    0.141615    0.378024    0.512677    0.722443    1.000000
   16.3 B2    1  3d1-         0.041280     1.000000
   17.3 B2    1  4f1-        10.870300     1.000000
   18.3 B2    1  4f3-        10.870300     1.000000
   19.3 B2    1  4f1-         3.881200     1.000000
   20.3 B2    1  4f3-         3.881200     1.000000
   21.3 B2    1  4f1-         1.385800     1.000000
   22.3 B2    1  4f3-         1.385800     1.000000
   23.3 B2    1  4f1-         0.494800     1.000000
   24.3 B2    1  4f3-         0.494800     1.000000
   25.3 B2    1  4f1-         0.171020     1.000000
   26.3 B2    1  4f3-         0.171020     1.000000
   27.3 B2    1  5g1-         8.783100     1.000000
   28.3 B2    1  5g3-         8.783100     1.000000
   29.3 B2    1  5g1-         3.090700     1.000000
   30.3 B2    1  5g3-         3.090700     1.000000
   31.3 B2    1  5g1-         1.087600     1.000000
   32.3 B2    1  5g3-         1.087600     1.000000
   33.3 B2    1  5g1-         0.418600     1.000000
   34.3 B2    1  5g3-         0.418600     1.000000
   35.3 B2    1  6h1-         6.474800     1.000000
   36.3 B2    1  6h3-         6.474800     1.000000
   37.3 B2    1  6h5-         6.474800     1.000000
   38.3 B2    1  6h1-         2.067800     1.000000
   39.3 B2    1  6h3-         2.067800     1.000000
   40.3 B2    1  6h5-         2.067800     1.000000
   41.3 B2    1  6h1-         0.881500     1.000000
   42.3 B2    1  6h3-         0.881500     1.000000
   43.3 B2    1  6h5-         0.881500     1.000000
   44.3 B2    1  7i5-         4.899800     1.000000
   45.3 B2    1  7i3-         4.899800     1.000000
   46.3 B2    1  7i1-         4.899800     1.000000
   47.3 B2    1  7i5-         2.394720     1.000000
   48.3 B2    1  7i3-         2.394720     1.000000
   49.3 B2    1  7i1-         2.394720     1.000000
   50.3 B2    2  2py        101.800000     0.000906    0.000000    0.000000    0.000000    0.000000
   51.3 B2                   24.040000     0.006999    0.000000    0.000000    0.000000    0.000000
   52.3 B2                    7.571000     0.031702    0.000000    0.000000    0.000000    0.000000
   53.3 B2                    2.732000     0.104029    0.000000    0.000000    0.000000    0.000000
   54.3 B2                    1.085000     0.241614    1.000000    0.000000    0.000000    0.000000
                              0.449600     0.371855    0.000000    1.000000    0.000000    0.000000
                              0.187600     0.354222    0.000000    0.000000    1.000000    0.000000
                              0.076060     0.131661    0.000000    0.000000    0.000000    1.000000
   55.3 B2    2  2py          0.027200     1.000000
   56.3 B2    2  3d1-         3.134000     1.000000
   57.3 B2    2  3d1-         1.233000     1.000000
   58.3 B2    2  3d1-         0.485000     1.000000
   59.3 B2    2  3d1-         0.191000     1.000000
   60.3 B2    2  3d1-         0.070100     1.000000
   61.3 B2    2  4f1-         2.006000     1.000000
   62.3 B2    2  4f3-         2.006000     1.000000
   63.3 B2    2  4f1-         0.838000     1.000000
   64.3 B2    2  4f3-         0.838000     1.000000
   65.3 B2    2  4f1-         0.350000     1.000000
   66.3 B2    2  4f3-         0.350000     1.000000
   67.3 B2    2  4f1-         0.138000     1.000000
   68.3 B2    2  4f3-         0.138000     1.000000
   69.3 B2    2  5g1-         1.753000     1.000000
   70.3 B2    2  5g3-         1.753000     1.000000
   71.3 B2    2  5g1-         0.678000     1.000000
   72.3 B2    2  5g3-         0.678000     1.000000
   73.3 B2    2  5g1-         0.319000     1.000000
   74.3 B2    2  5g3-         0.319000     1.000000
   75.3 B2    2  6h1-         1.259000     1.000000
   76.3 B2    2  6h3-         1.259000     1.000000
   77.3 B2    2  6h5-         1.259000     1.000000
   78.3 B2    2  6h1-         0.586000     1.000000
   79.3 B2    2  6h3-         0.586000     1.000000
   80.3 B2    2  6h5-         0.586000     1.000000
   81.3 B2    3  2py        147.000000     0.000913    0.000000    0.000000    0.000000    0.000000
   82.3 B2                   34.760000     0.007118    0.000000    0.000000    0.000000    0.000000
   83.3 B2                   11.000000     0.032874    0.000000    0.000000    0.000000    0.000000
   84.3 B2                    3.995000     0.108258    0.000000    0.000000    0.000000    0.000000
   85.3 B2                    1.587000     0.248089    1.000000    0.000000    0.000000    0.000000
                              0.653300     0.374398    0.000000    1.000000    0.000000    0.000000
                              0.268600     0.348427    0.000000    0.000000    1.000000    0.000000
                              0.106700     0.128431    0.000000    0.000000    0.000000    1.000000
   86.3 B2    3  2py          0.036900     1.000000
   87.3 B2    3  3d1-         4.647000     1.000000
   88.3 B2    3  3d1-         1.813000     1.000000
   89.3 B2    3  3d1-         0.707000     1.000000
   90.3 B2    3  3d1-         0.276000     1.000000
   91.3 B2    3  3d1-         0.097100     1.000000
   92.3 B2    3  4f1-         2.942000     1.000000
   93.3 B2    3  4f3-         2.942000     1.000000
   94.3 B2    3  4f1-         1.204000     1.000000
   95.3 B2    3  4f3-         1.204000     1.000000
   96.3 B2    3  4f1-         0.493000     1.000000
   97.3 B2    3  4f3-         0.493000     1.000000
   98.3 B2    3  4f1-         0.192000     1.000000
   99.3 B2    3  4f3-         0.192000     1.000000
  100.3 B2    3  5g1-         2.511000     1.000000
  101.3 B2    3  5g3-         2.511000     1.000000
  102.3 B2    3  5g1-         0.942000     1.000000
  103.3 B2    3  5g3-         0.942000     1.000000
  104.3 B2    3  5g1-         0.436000     1.000000
  105.3 B2    3  5g3-         0.436000     1.000000
  106.3 B2    3  6h1-         1.768000     1.000000
  107.3 B2    3  6h3-         1.768000     1.000000
  108.3 B2    3  6h5-         1.768000     1.000000
  109.3 B2    3  6h1-         0.788000     1.000000
  110.3 B2    3  6h3-         0.788000     1.000000
  111.3 B2    3  6h5-         0.788000     1.000000
    1.4 A2    1  3d2-       772.568000     0.000133   -0.000165    0.000197   -0.000276    0.000398    0.000000
    2.4 A2                  226.925000     0.001205   -0.001498    0.001822   -0.002778    0.003378    0.000000
    3.4 A2                   87.144300     0.006764   -0.008444    0.010210   -0.014619    0.020602    0.000000
    4.4 A2                   38.213200     0.025816   -0.032417    0.039845   -0.061104    0.076726    0.000000
    5.4 A2                   17.961200     0.072948   -0.093852    0.117810   -0.181860    0.305972    0.000000
    6.4 A2                    8.856150     0.156426   -0.206566    0.275601   -0.487597    0.626476    0.000000
                              4.463442     0.243720   -0.291176    0.289781   -0.026797   -1.172997    0.000000
                              2.237376     0.286780   -0.180796   -0.193995    0.995518   -0.305371    0.000000
                              1.098654     0.268943    0.135887   -0.583037   -0.067545    1.628013    0.000000
                              0.522590     0.199472    0.384256   -0.169699   -0.927390   -0.995261    0.000000
                              0.236853     0.102882    0.364546    0.517140    0.235713   -0.406277    0.000000
                              0.098875     0.023994    0.141615    0.378024    0.512677    0.722443    1.000000
    7.4 A2    1  3d2-         0.041280     1.000000
    8.4 A2    1  4f2-        10.870300     1.000000
    9.4 A2    1  4f2-         3.881200     1.000000
   10.4 A2    1  4f2-         1.385800     1.000000
   11.4 A2    1  4f2-         0.494800     1.000000
   12.4 A2    1  4f2-         0.171020     1.000000
   13.4 A2    1  5g2-         8.783100     1.000000
   14.4 A2    1  5g4-         8.783100     1.000000
   15.4 A2    1  5g2-         3.090700     1.000000
   16.4 A2    1  5g4-         3.090700     1.000000
   17.4 A2    1  5g2-         1.087600     1.000000
   18.4 A2    1  5g4-         1.087600     1.000000
   19.4 A2    1  5g2-         0.418600     1.000000
   20.4 A2    1  5g4-         0.418600     1.000000
   21.4 A2    1  6h4-         6.474800     1.000000
   22.4 A2    1  6h2-         6.474800     1.000000
   23.4 A2    1  6h4-         2.067800     1.000000
   24.4 A2    1  6h2-         2.067800     1.000000
   25.4 A2    1  6h4-         0.881500     1.000000
   26.4 A2    1  6h2-         0.881500     1.000000
   27.4 A2    1  7i2-         4.899800     1.000000
   28.4 A2    1  7i6-         4.899800     1.000000
   29.4 A2    1  7i4-         4.899800     1.000000
   30.4 A2    1  7i2-         2.394720     1.000000
   31.4 A2    1  7i6-         2.394720     1.000000
   32.4 A2    1  7i4-         2.394720     1.000000
   33.4 A2    2  3d2-         3.134000     1.000000
   34.4 A2    2  3d2-         1.233000     1.000000
   35.4 A2    2  3d2-         0.485000     1.000000
   36.4 A2    2  3d2-         0.191000     1.000000
   37.4 A2    2  3d2-         0.070100     1.000000
   38.4 A2    2  4f2-         2.006000     1.000000
   39.4 A2    2  4f2-         0.838000     1.000000
   40.4 A2    2  4f2-         0.350000     1.000000
   41.4 A2    2  4f2-         0.138000     1.000000
   42.4 A2    2  5g2-         1.753000     1.000000
   43.4 A2    2  5g4-         1.753000     1.000000
   44.4 A2    2  5g2-         0.678000     1.000000
   45.4 A2    2  5g4-         0.678000     1.000000
   46.4 A2    2  5g2-         0.319000     1.000000
   47.4 A2    2  5g4-         0.319000     1.000000
   48.4 A2    2  6h4-         1.259000     1.000000
   49.4 A2    2  6h2-         1.259000     1.000000
   50.4 A2    2  6h4-         0.586000     1.000000
   51.4 A2    2  6h2-         0.586000     1.000000
   52.4 A2    3  3d2-         4.647000     1.000000
   53.4 A2    3  3d2-         1.813000     1.000000
   54.4 A2    3  3d2-         0.707000     1.000000
   55.4 A2    3  3d2-         0.276000     1.000000
   56.4 A2    3  3d2-         0.097100     1.000000
   57.4 A2    3  4f2-         2.942000     1.000000
   58.4 A2    3  4f2-         1.204000     1.000000
   59.4 A2    3  4f2-         0.493000     1.000000
   60.4 A2    3  4f2-         0.192000     1.000000
   61.4 A2    3  5g2-         2.511000     1.000000
   62.4 A2    3  5g4-         2.511000     1.000000
   63.4 A2    3  5g2-         0.942000     1.000000
   64.4 A2    3  5g4-         0.942000     1.000000
   65.4 A2    3  5g2-         0.436000     1.000000
   66.4 A2    3  5g4-         0.436000     1.000000
   67.4 A2    3  6h4-         1.768000     1.000000
   68.4 A2    3  6h2-         1.768000     1.000000
   69.4 A2    3  6h4-         0.788000     1.000000
   70.4 A2    3  6h2-         0.788000     1.000000

 NUCLEAR CHARGE:                   42
 NUMBER OF PRIMITIVE AOS:         797
 NUMBER OF SYMMETRY AOS:          575
 NUMBER OF CONTRACTIONS:          456   ( 164A1  + 111B1  + 111B2  +  70A2  )
 NUMBER OF CORE ORBITALS:          11   (   7A1  +   2B1  +   2B2  +   0A2  )
 NUMBER OF VALENCE ORBITALS:       14   (   7A1  +   3B1  +   3B2  +   1A2  )


 NUCLEAR REPULSION ENERGY  102.23133339

 One-electron integrals computed with SEWARD

 2nd-order Douglas-Kroll-Hess method activated. Optimal DKH parametrization is used.

 Computing Douglas-Kroll integrals

 AO integral compression algorithm  1   Integral accuracy      1.0D-14

     5756.682 MB (compressed) written to integral file ( 45.7%)

     Node minimum: 606.601 MB, node maximum: 1206.649 MB


 NUMBER OF SORTED TWO-ELECTRON INTEGRALS:  171460256.     BUFFER LENGTH:  32768
 NUMBER OF SEGMENTS:   6  SEGMENT LENGTH:   31990644      RECORD LENGTH: 524288

 Memory used in sort:      32.55 MW

 SORT1 READ  1573219125. AND WROTE   105618245. INTEGRALS IN    305 RECORDS. CPU TIME:    46.82 SEC, REAL TIME:    50.14 SEC
 SORT2 READ   841481315. AND WROTE  1371683740. INTEGRALS IN  20816 RECORDS. CPU TIME:     4.66 SEC, REAL TIME:     8.74 SEC

 Node minimum:   171398534.  Node maximum:   171529267. integrals

 OPERATOR DM      FOR CENTER  0  COORDINATES:    0.000000    0.000000    0.000000

 EXTRA SYMMETRY OF AOS IN SYMMETRY 1:   1 1 1 1 1 1 1 1 1 1   1 1 1 1 1 1 1 1 1 1   2 1 2 1 2 1 2 1 2 1   2 1 2 1 2 1 2 1 2 1
                                        2 1 2 1 3 2 1 3 2 1   3 2 1 3 2 2 3 1 2 3   1 2 3 1 4 3 2 1 4 3   2 1 1 1 1 1 1 1 1 1
                                        1 1 1 1 1 1 2 1 2 1   2 1 2 1 2 1 2 1 2 1   2 1 2 1 3 2 1 3 2 1   3 2 2 3 1 2 3 1 1 1
                                        1 1 1 1 1 1 1 1 1 1   1 1 2 1 2 1 2 1 2 1   2 1 2 1 2 1 2 1 2 1   3 2 1 3 2 1 3 2 2 3
                                        1 2 3 1
 EXTRA SYMMETRY OF AOS IN SYMMETRY 2:   1 1 1 1 1 1 1 1 1 1   1 1 1 1 1 1 1 2 1 2   1 2 1 2 1 2 1 2 1 2   1 2 1 2 1 2 3 1 2 3
                                        1 2 3 3 2 1 3 2 1 1   1 1 1 1 1 1 1 1 1 1   1 2 1 2 1 2 1 2 1 2   1 2 1 2 1 2 3 1 2 3
                                        1 1 1 1 1 1 1 1 1 1   1 1 2 1 2 1 2 1 2 1   2 1 2 1 2 1 2 3 1 2   3
 EXTRA SYMMETRY OF AOS IN SYMMETRY 3:   1 1 1 1 1 1 1 1 1 1   1 1 1 1 1 1 1 2 1 2   1 2 1 2 1 2 1 2 1 2   1 2 1 2 1 2 3 1 2 3
                                        1 2 3 3 2 1 3 2 1 1   1 1 1 1 1 1 1 1 1 1   1 2 1 2 1 2 1 2 1 2   1 2 1 2 1 2 3 1 2 3
                                        1 1 1 1 1 1 1 1 1 1   1 1 2 1 2 1 2 1 2 1   2 1 2 1 2 1 2 3 1 2   3
 EXTRA SYMMETRY OF AOS IN SYMMETRY 4:   1 1 1 1 1 1 1 1 1 1   1 1 1 2 1 2 1 2 1 2   2 1 2 1 2 1 1 3 2 1   3 2 1 1 1 1 1 1 1 1
                                        1 1 2 1 2 1 2 2 1 2   1 1 1 1 1 1 1 1 1 1   1 2 1 2 1 2 2 1 2 1

 Eigenvalues of metric

         1 0.199E-05 0.593E-05 0.866E-05 0.184E-04 0.632E-04 0.667E-04 0.180E-03 0.193E-03
         2 0.616E-04 0.108E-03 0.401E-03 0.440E-03 0.105E-02 0.165E-02 0.303E-02 0.334E-02
         3 0.616E-04 0.108E-03 0.401E-03 0.440E-03 0.105E-02 0.165E-02 0.303E-02 0.334E-02
         4 0.856E-03 0.525E-02 0.971E-02 0.145E-01 0.220E-01 0.302E-01 0.463E-01 0.633E-01


 **********************************************************************************************************************************
 DATASETS  * FILE   NREC   LENGTH (MB)   RECORD NAMES
              1      22       12.02       500      610      700      900      950      970     1000      129      960     1700   
                                          VAR    BASINP    GEOM    SYMINP    ZMAT    AOBASIS   BASIS     P2S    ABASIS    OPER   
                                         1101     1401     1411     1412     1650     1100     1400     1410     1200     1210   
                                          SR      EKINR    POTR     PVPR    MOLCAS      S      EKIN      POT      H0       H01  
                                         1080     1600   
                                         AOSYM     SMH  

              2       5        1.30       500      610      700     1000      520   
                                          VAR    BASINP    GEOM     BASIS   MCVARS    

 PROGRAMS   *        TOTAL       INT      FILE
 CPU TIMES  *       161.45    161.05      0.04
 REAL TIME  *       170.65 SEC
 DISK USED  *        16.00 GB      
 GA USED    *         0.00 MB       (max)       0.00 MB       (current)
 **********************************************************************************************************************************

1PROGRAM * RHF-SCF (CLOSED SHELL)       Authors: W. Meyer, H.-J. Werner


 NUMBER OF ELECTRONS:      21+   21-    SPACE SYMMETRY=1    SPIN SYMMETRY: Singlet 
 CONVERGENCE THRESHOLDS:    1.00E-06 (Density)    1.00E-10 (Energy)
 MAX. NUMBER OF ITERATIONS:       60
 INTERPOLATION TYPE:            DIIS
 INTERPOLATION STEPS:              2 (START)      1 (STEP)
 LEVEL SHIFTS:                  0.00 (CLOSED)  0.00 (OPEN) 

 Number of closed-shell orbitals:   21 (  12   4   4   1 )


 Orbital guess generated from atomic densities. Full valence occupancy:   14   5   5   1

 Molecular orbital dump at record        2100.2

 ITERATION    DDIFF          GRAD             ENERGY        2-EL.EN.            DIPOLE MOMENTS         DIIS   ORB.
    1      0.000D+00      0.000D+00     -1745.32653827   1548.130483    0.00000    0.00000   -4.50469    0    start
    2      0.000D+00      0.145D-01     -1745.23005090   1612.284012    0.00000    0.00000   -2.61654    1    diag
    3      0.551D-02      0.211D-01     -1745.52438675   1578.282474    0.00000    0.00000   -3.21453    2    diag
    4      0.271D-02      0.149D-02     -1745.52801710   1575.609896    0.00000    0.00000   -3.35492    3    diag
    5      0.678D-03      0.325D-03     -1745.52849298   1575.636021    0.00000    0.00000   -3.31065    4    diag
    6      0.287D-03      0.193D-03     -1745.52861603   1575.782647    0.00000    0.00000   -3.33334    5    diag
    7      0.142D-03      0.600D-04     -1745.52864336   1575.814194    0.00000    0.00000   -3.32913    6    diag
    8      0.743D-04      0.217D-04     -1745.52864671   1575.776994    0.00000    0.00000   -3.33021    7    diag
    9      0.244D-04      0.825D-05     -1745.52864752   1575.776905    0.00000    0.00000   -3.33002    8    diag
   10      0.105D-04      0.424D-05     -1745.52864785   1575.775253    0.00000    0.00000   -3.32946    9    orth
   11      0.101D-04      0.145D-05     -1745.52864788   1575.775777    0.00000    0.00000   -3.32931    9    diag
   12      0.347D-05      0.294D-06     -1745.52864788   1575.775610    0.00000    0.00000   -3.32932    9    diag
   13      0.583D-06      0.856D-07     -1745.52864788   1575.775705    0.00000    0.00000   -3.32933    9    diag
   14      0.115D-06      0.300D-07     -1745.52864788   1575.775618    0.00000    0.00000   -3.32933    0    orth

 Final occupancy:  12   4   4   1

 !RHF STATE 1.1 Energy              -1745.528647879539
 Nuclear energy                       102.23133339
 One-electron energy                -2635.64779048
 Two-electron energy                  787.88780921
 Virial quotient                       -0.95312036
 !RHF STATE 1.1 Dipole moment           0.00000000     0.00000000    -3.32933234
 Dipole moment /Debye                   0.00000000     0.00000000    -8.46176449

 ELECTRON ORBITALS
 =================


   Orb  Occ    Energy  Couls-En    Coefficients

                                   1 1s      1 1s      1 1s      1 1s      1 1s      1 1s      1 1s      1 1s      1 1s      1 1s   
                                   1 2pz     1 2pz     1 2pz     1 2pz     1 2pz     1 2pz     1 2pz     1 2pz     1 2pz     1 3d0  
                                   1 3d2+    1 3d0     1 3d2+    1 3d0     1 3d2+    1 3d0     1 3d2+    1 3d0     1 3d2+    1 3d0  
                                   1 3d2+    1 3d0     1 3d2+    1 4f0     1 4f2+    1 4f0     1 4f2+    1 4f0     1 4f2+    1 4f0  
                                   1 4f2+    1 4f0     1 4f2+    1 5g0     1 5g4+    1 5g2+    1 5g0     1 5g4+    1 5g2+    1 5g0  
                                   1 5g4+    1 5g2+    1 5g0     1 5g4+    1 5g2+    1 6h2+    1 6h4+    1 6h0     1 6h2+    1 6h4+ 
                                   1 6h0     1 6h2+    1 6h4+    1 6h0     1 7i6+    1 7i4+    1 7i2+    1 7i0     1 7i6+    1 7i4+ 
                                   1 7i2+    1 7i0     2 1s      2 1s      2 1s      2 1s      2 1s      2 1s      2 1s      2 2pz  
                                   2 2pz     2 2pz     2 2pz     2 2pz     2 2pz     2 3d0     2 3d2+    2 3d0     2 3d2+    2 3d0  
                                   2 3d2+    2 3d0     2 3d2+    2 3d0     2 3d2+    2 4f0     2 4f2+    2 4f0     2 4f2+    2 4f0  
                                   2 4f2+    2 4f0     2 4f2+    2 5g0     2 5g4+    2 5g2+    2 5g0     2 5g4+    2 5g2+    2 5g0  
                                   2 5g4+    2 5g2+    2 6h2+    2 6h4+    2 6h0     2 6h2+    2 6h4+    2 6h0     3 1s      3 1s   
                                   3 1s      3 1s      3 1s      3 1s      3 1s      3 2pz     3 2pz     3 2pz     3 2pz     3 2pz  
                                   3 2pz     3 3d0     3 3d2+    3 3d0     3 3d2+    3 3d0     3 3d2+    3 3d0     3 3d2+    3 3d0  
                                   3 3d2+    3 4f0     3 4f2+    3 4f0     3 4f2+    3 4f0     3 4f2+    3 4f0     3 4f2+    3 5g0  
                                   3 5g4+    3 5g2+    3 5g0     3 5g4+    3 5g2+    3 5g0     3 5g4+    3 5g2+    3 6h2+    3 6h4+ 
                                   3 6h0     3 6h2+    3 6h4+    3 6h0  

   1.1   2  -332.5294 -760.5230  0.978472 -0.206374 -0.000423 -0.000098 -0.000010 -0.000011 -0.000004  0.000003  0.000005  0.000002
                                -0.000011 -0.000008 -0.000136  0.000078 -0.000027  0.000010 -0.000007  0.000013  0.000001 -0.000003
                                 0.000000 -0.000004  0.000000  0.000001  0.000000  0.000002  0.000000  0.000002  0.000000 -0.000004
                                 0.000000 -0.000004  0.000000  0.000000  0.000000  0.000000  0.000000  0.000000  0.000000 -0.000002
                                 0.000000  0.000001  0.000000  0.000000  0.000000  0.000000  0.000000  0.000000  0.000000 -0.000001
                                 0.000000  0.000000  0.000000  0.000000  0.000000  0.000000  0.000000  0.000000  0.000000  0.000000
                                 0.000000  0.000000  0.000000  0.000000  0.000000  0.000000  0.000000  0.000000  0.000000  0.000000
                                 0.000000  0.000000  0.000000  0.000001  0.000001 -0.000012  0.000027  0.000071  0.000083  0.000000
                                -0.000002  0.000012 -0.000006 -0.000025 -0.000009  0.000000  0.000000 -0.000002  0.000000  0.000006
                                 0.000000  0.000015  0.000000  0.000006  0.000000  0.000000  0.000000  0.000001  0.000000 -0.000007
                                 0.000000 -0.000005  0.000000  0.000000  0.000000  0.000000  0.000000  0.000000  0.000000  0.000003
                                 0.000000  0.000000  0.000000  0.000000  0.000000  0.000000  0.000000 -0.000002  0.000000  0.000000
                                 0.000000  0.000003 -0.000012 -0.000031 -0.000033  0.000000  0.000000  0.000002  0.000013  0.000019
                                 0.000006  0.000000  0.000000  0.000000  0.000000 -0.000001  0.000000 -0.000003  0.000000 -0.000004
                                 0.000000  0.000000  0.000000  0.000000  0.000000 -0.000001  0.000000  0.000000  0.000000  0.000000
                                 0.000000  0.000000  0.000000  0.000000  0.000000  0.000001  0.000000  0.000000  0.000000  0.000000
                                 0.000000  0.000000  0.000000  0.000000

   2.1   2   -41.7278 -149.2879  0.206378  0.978492  0.005451  0.000242 -0.000069  0.000075  0.000056 -0.000028 -0.000196  0.000004
                                -0.001922 -0.000018  0.001944 -0.001440  0.000578 -0.000206  0.000163 -0.000472 -0.000001 -0.000041
                                 0.000000  0.000011  0.000000 -0.000139  0.000000 -0.000042  0.000000 -0.000076  0.000000  0.000077
                                 0.000000  0.000008  0.000000  0.000000  0.000000  0.000000  0.000000  0.000001  0.000000  0.000038
                                 0.000000 -0.000034  0.000000 -0.000003  0.000000  0.000000 -0.000007  0.000000  0.000000  0.000010
                                 0.000000  0.000000  0.000006  0.000000  0.000000  0.000000  0.000000  0.000000  0.000000  0.000000
                                -0.000002  0.000000  0.000000  0.000008  0.000000  0.000000  0.000000  0.000000  0.000000  0.000000
                                 0.000000  0.000001 -0.000005 -0.000023 -0.000026  0.000197 -0.000313 -0.000201  0.000032  0.000006
                                 0.000018 -0.000115  0.000019  0.000052 -0.000019 -0.000009  0.000000  0.000044  0.000000 -0.000098
                                 0.000000 -0.000153  0.000000  0.000009  0.000000  0.000000  0.000000 -0.000004  0.000000  0.000102
                                 0.000000  0.000047  0.000000  0.000003  0.000000  0.000000 -0.000010  0.000000  0.000000 -0.000043
                                 0.000000  0.000000  0.000000  0.000000  0.000001  0.000000  0.000000  0.000024  0.000001  0.000004
                                 0.000001 -0.000031  0.000136  0.000220  0.000026 -0.000001 -0.000001 -0.000017 -0.000121 -0.000112
                                 0.000005  0.000000  0.000000  0.000001  0.000000 -0.000006  0.000000  0.000024  0.000000  0.000016
                                 0.000000 -0.000002  0.000000  0.000009  0.000000  0.000020  0.000000  0.000003  0.000000 -0.000001
                                 0.000000  0.000000 -0.000008  0.000000  0.000000 -0.000013  0.000000  0.000000  0.000000  0.000000
                                 0.000001  0.000000  0.000000  0.000003

   3.1   2   -35.8724 -141.9389  0.000471  0.002056  0.000785  0.002023 -0.000080  0.000185  0.000095 -0.000091  0.000425 -0.000054
                                 0.999987  0.008084  0.001125 -0.000202  0.000312 -0.000181  0.000124  0.000306 -0.000024 -0.000055
                                 0.000000  0.000227  0.000000 -0.000208  0.000000 -0.000029  0.000000 -0.000167  0.000000  0.000119
                                 0.000000  0.000105  0.000000 -0.000047  0.000000 -0.000002  0.000000 -0.000011  0.000000  0.000099
                                 0.000000 -0.000047  0.000000  0.000001  0.000000  0.000000 -0.000006  0.000000  0.000000  0.000020
                                 0.000000  0.000000  0.000012  0.000000  0.000000  0.000000  0.000000  0.000001  0.000000  0.000000
                                -0.000004  0.000000  0.000000  0.000014  0.000000  0.000000  0.000000 -0.000001  0.000000  0.000000
                                 0.000000  0.000002 -0.000004 -0.000017 -0.000040  0.000478 -0.001012 -0.001668 -0.002427 -0.000001
                                 0.000065 -0.000438  0.000272  0.000331  0.000230 -0.000013  0.000000  0.000075  0.000000 -0.000253
                                 0.000000 -0.000507  0.000000 -0.000225  0.000000  0.000002  0.000000 -0.000032  0.000000  0.000271
                                 0.000000  0.000184  0.000000  0.000003  0.000000  0.000000 -0.000015  0.000000  0.000000 -0.000060
                                 0.000000  0.000000  0.000000  0.000000  0.000000  0.000000  0.000000  0.000053  0.000003  0.000011
                                 0.000002 -0.000121  0.000402  0.001036  0.001092 -0.000003  0.000007 -0.000099 -0.000471 -0.000413
                                -0.000150  0.000000  0.000000  0.000004  0.000000  0.000029  0.000000  0.000067  0.000000  0.000038
                                 0.000000 -0.000002  0.000000  0.000007  0.000000  0.000061  0.000000  0.000020  0.000000  0.000000
                                 0.000000  0.000000 -0.000018  0.000000  0.000000 -0.000041  0.000000  0.000000  0.000000  0.000000
                                 0.000001  0.000000  0.000000  0.000012

   4.1   2   -15.5275  -47.6804  0.000025  0.000068  0.000333  0.000455 -0.000409 -0.000081 -0.000021  0.000004  0.000117  0.000021
                                 0.000018  0.000274 -0.000112  0.000808 -0.000089  0.000000  0.000002 -0.000096  0.000013  0.000163
                                 0.000000  0.000242  0.000000  0.000105  0.000000  0.000006  0.000000 -0.000003  0.000000  0.000007
                                 0.000000 -0.000028  0.000000  0.000001  0.000000 -0.000003  0.000000  0.000012  0.000000  0.000038
                                 0.000000  0.000023  0.000000  0.000000  0.000000  0.000000 -0.000001  0.000000  0.000000  0.000007
                                 0.000000  0.000000 -0.000007  0.000000  0.000000  0.000000  0.000000  0.000000  0.000000  0.000000
                                 0.000001  0.000000  0.000000 -0.000002  0.000000  0.000000  0.000000  0.000000  0.000000  0.000000
                                 0.000000  0.000000  0.000400  0.001166  0.000238  0.000098 -0.005087 -0.003157 -0.000094  0.000616
                                 0.000124 -0.002219 -0.000926 -0.000639 -0.000063  0.000042  0.000000 -0.000097  0.000000 -0.000577
                                 0.000000 -0.000605  0.000000 -0.000069  0.000000 -0.000011  0.000000 -0.000128  0.000000  0.000476
                                 0.000000 -0.000008  0.000000 -0.000026  0.000000  0.000000  0.000110  0.000000  0.000000  0.000082
                                 0.000000  0.000000  0.000000  0.000000 -0.000004  0.000000  0.000000  0.000132  1.000437  0.002413
                                 0.000267 -0.001740  0.002152  0.002969  0.000730 -0.008979  0.002451  0.001989  0.000831  0.000474
                                -0.000046 -0.000119  0.000000  0.000437  0.000000  0.000662  0.000000  0.000477  0.000000  0.000034
                                 0.000000 -0.000057  0.000000 -0.000204  0.000000  0.000134  0.000000  0.000040  0.000000  0.000054
                                 0.000000  0.000000  0.000010  0.000000  0.000000 -0.000153  0.000000  0.000000  0.000000  0.000000
                                -0.000036  0.000000  0.000000  0.000053

   5.1   2   -11.2060  -40.3635 -0.000012 -0.000032 -0.000075  0.000889  0.000423 -0.000026 -0.000020 -0.000002 -0.000366  0.000010
                                -0.000008  0.000013  0.001068 -0.000185 -0.000163  0.000036  0.000003 -0.000251  0.000002  0.000187
                                 0.000000  0.000353  0.000000  0.000291  0.000000  0.000079  0.000000  0.000006  0.000000  0.000058
                                 0.000000 -0.000008  0.000000 -0.000001  0.000000  0.000009  0.000000 -0.000038  0.000000  0.000166
                                 0.000000  0.000149  0.000000  0.000002  0.000000  0.000000 -0.000009  0.000000  0.000000  0.000023
                                 0.000000  0.000000  0.000088  0.000000  0.000000  0.000000  0.000000  0.000000  0.000000  0.000000
[...]
                                 0.000001  0.000000  0.000007  0.000000  0.000005  0.000000  0.000000 -0.000027  0.000000  0.000000
                                -0.000002  0.000000  0.000034  0.000092  0.000071  0.000010  0.000000  0.000000 -0.000015 -0.000071
                                -0.000027  0.000000  0.000000 -0.000001  0.000000  0.000020  0.000000  0.000012  0.000000  0.000002
                                 0.000000 -0.000006  0.000000 -0.000006  0.000000 -0.000001  0.000000  0.000000  0.000006  0.000000
                                 0.000000

   2.3   2    -3.4328  -44.4093 -0.007803  0.999955  0.003495  0.001844  0.003668 -0.000511 -0.000098 -0.000672 -0.000055 -0.005074
                                 0.000712  0.001449  0.000349  0.000188 -0.000894  0.000119  0.000030  0.000000  0.000100  0.000000
                                 0.000218  0.000000 -0.000091  0.000000  0.000117  0.000000  0.000001  0.000000 -0.000016  0.000000
                                 0.000005  0.000000  0.000042  0.000000  0.000007  0.000000  0.000000  0.000006  0.000000  0.000000
                                 0.000028  0.000000  0.000000  0.000000  0.000000 -0.000003  0.000000  0.000000  0.000008  0.000575
                                -0.000089  0.000514 -0.000357 -0.000855 -0.000301 -0.000030  0.000016 -0.000358 -0.000100 -0.000369
                                -0.000002  0.000000  0.000174  0.000000  0.000176  0.000000 -0.000469  0.000000  0.000005  0.000000
                                -0.000102  0.000000 -0.000133  0.000000  0.000025  0.000000  0.000000  0.000047  0.000000  0.000000
                                -0.000060 -0.000007  0.000006  0.000086  0.000696  0.000286 -0.000002  0.000009  0.000021  0.000196
                                 0.000002  0.000002  0.000000 -0.000018  0.000000 -0.000091  0.000000 -0.000103  0.000000  0.000000
                                 0.000000  0.000036  0.000000  0.000034  0.000000 -0.000005  0.000000  0.000000 -0.000021  0.000000
                                 0.000000

   3.3   2    -0.5559  -33.5959  0.000000  0.002401  0.003885 -0.016028  0.000414  0.000263 -0.000061 -0.000690 -0.000410  0.979819
                                 0.026699  0.010712  0.001439  0.000112 -0.003274  0.000083 -0.000241  0.000000 -0.000841  0.000000
                                -0.002247  0.000000 -0.004551  0.000000 -0.003444  0.000000 -0.000042  0.000000  0.000011  0.000000
                                 0.000420  0.000000  0.000485  0.000000  0.000000  0.000000  0.000000 -0.000021  0.000000  0.000000
                                 0.000157  0.000000  0.000000  0.000000  0.000000  0.000002  0.000000  0.000000  0.000041  0.117080
                                -0.001591 -0.001717 -0.010080 -0.012836  0.001040 -0.000153 -0.000117 -0.005791 -0.002213  0.000234
                                 0.000269  0.000000  0.002304  0.000000  0.002604  0.000000 -0.000362  0.000000  0.000115  0.000000
                                -0.001010  0.000000  0.000215  0.000000  0.000253  0.000000  0.000000  0.000220  0.000000  0.000000
                                 0.077391 -0.000754 -0.000587 -0.001736  0.001432  0.000069 -0.000255 -0.001092 -0.004375 -0.003831
                                -0.001128  0.000060  0.000000  0.000589  0.000000  0.001438  0.000000  0.000397  0.000000 -0.000051
                                 0.000000 -0.000220  0.000000 -0.000281  0.000000  0.000024  0.000000  0.000000  0.000027  0.000000
                                 0.000000

   4.3   2    -0.4131  -13.8957 -0.000527 -0.014729  0.010445  0.017616 -0.002732  0.000233  0.000004 -0.002115 -0.000095 -0.188264
                                -0.002418 -0.001211 -0.000249 -0.000077  0.000386 -0.000811  0.000085  0.000000  0.000326  0.000000
                                 0.001133  0.000000  0.002923  0.000000  0.002294  0.000000  0.000013  0.000000  0.000014  0.000000
                                 0.000192  0.000000  0.000239  0.000000 -0.000001  0.000000  0.000000  0.000031  0.000000  0.000000
                                 0.000035  0.000000  0.000000  0.000000  0.000000 -0.000004  0.000000  0.000000  0.000005  0.560376
                                -0.005518 -0.024942 -0.028014 -0.011163  0.001280  0.002408  0.010548  0.017636  0.010836 -0.002753
                                 0.001465  0.000000  0.002778  0.000000  0.008519  0.000000  0.002987  0.000000  0.000790  0.000000
                                 0.000729  0.000000  0.001631  0.000000  0.000407  0.000000  0.000000  0.000531  0.000000  0.000000
                                 0.642945 -0.005647 -0.006980 -0.006457  0.024312  0.009594 -0.001535 -0.007390 -0.027290 -0.027169
                                -0.009175  0.000227  0.000000  0.004523  0.000000  0.010039  0.000000  0.003318  0.000000 -0.000377
                                 0.000000 -0.002912  0.000000 -0.002481  0.000000  0.000362  0.000000  0.000000  0.001004  0.000000
                                 0.000000

                                   1 3d2-    1 3d2-    1 3d2-    1 3d2-    1 3d2-    1 3d2-    1 3d2-    1 4f2-    1 4f2-    1 4f2- 
                                   1 4f2-    1 4f2-    1 5g2-    1 5g4-    1 5g2-    1 5g4-    1 5g2-    1 5g4-    1 5g2-    1 5g4- 
                                   1 6h4-    1 6h2-    1 6h4-    1 6h2-    1 6h4-    1 6h2-    1 7i2-    1 7i6-    1 7i4-    1 7i2- 
                                   1 7i6-    1 7i4-    2 3d2-    2 3d2-    2 3d2-    2 3d2-    2 3d2-    2 4f2-    2 4f2-    2 4f2- 
                                   2 4f2-    2 5g2-    2 5g4-    2 5g2-    2 5g4-    2 5g2-    2 5g4-    2 6h4-    2 6h2-    2 6h4- 
                                   2 6h2-    3 3d2-    3 3d2-    3 3d2-    3 3d2-    3 3d2-    3 4f2-    3 4f2-    3 4f2-    3 4f2- 
                                   3 5g2-    3 5g4-    3 5g2-    3 5g4-    3 5g2-    3 5g4-    3 6h4-    3 6h2-    3 6h4-    3 6h2- 


   1.4   2    -0.5523  -34.3408  1.000554  0.024193  0.009568  0.001068  0.000052 -0.004295  0.000229 -0.000205 -0.000726 -0.001936
                                -0.004530 -0.003723 -0.000028  0.000000  0.000028  0.000000  0.000187  0.000000  0.000102  0.000000
                                 0.000000  0.000000  0.000000 -0.000021  0.000000  0.000047  0.000004  0.000000  0.000000  0.000018
                                 0.000000  0.000000  0.000072  0.000342  0.001476  0.000157 -0.000748 -0.000018 -0.000376 -0.001470
                                -0.000937  0.000007  0.000000  0.000455  0.000000 -0.000453  0.000000  0.000000 -0.000016  0.000000
                                -0.000385  0.000007  0.000002  0.000314  0.001256  0.001016  0.000003 -0.000046 -0.000241 -0.000501
                                 0.000006  0.000000  0.000006  0.000000 -0.000056  0.000000  0.000000 -0.000018  0.000000  0.000067

 HOMO      4.2    -0.413055 =     -11.2398eV
 LUMO     13.1    -0.024838 =      -0.6759eV
 LUMO-HOMO         0.388217 =      10.5639eV


 **********************************************************************************************************************************
 DATASETS  * FILE   NREC   LENGTH (MB)   RECORD NAMES
              1      22       12.02       500      610      700      900      950      970     1000      129      960     1700   
                                          VAR    BASINP    GEOM    SYMINP    ZMAT    AOBASIS   BASIS     P2S    ABASIS    OPER   
                                         1101     1401     1411     1412     1650     1100     1400     1410     1200     1210   
                                          SR      EKINR    POTR     PVPR    MOLCAS      S      EKIN      POT      H0       H01  
                                         1080     1600   
                                         AOSYM     SMH  

              2       6        2.55       500      610      700     1000      520     2100   
                                          VAR    BASINP    GEOM     BASIS   MCVARS     RHF  

 PROGRAMS   *        TOTAL       RHF       INT      FILE
 CPU TIMES  *       171.63     10.17    161.05      0.04
 REAL TIME  *       182.65 SEC
 DISK USED  *        16.15 GB      
 SF USED    *         0.23 MB      
 GA USED    *         0.00 MB       (max)       0.00 MB       (current)
 **********************************************************************************************************************************


1PROGRAM * CCSD (Closed-shell coupled cluster)     Authors: C. Hampel, H.-J. Werner, 1991, M. Deegan, P.J. Knowles, 1992


 Convergence thresholds:  THRVAR = 1.00D-13  THRDEN = 1.00D-09

 CCSD(T)     terms to be evaluated (factor= 1.000)


 Number of core orbitals:          11 (   7   2   2   0 )
 Number of closed-shell orbitals:  10 (   5   2   2   1 )
 Number of external orbitals:     435 ( 152 107 107  69 )

 Molecular orbitals read from record     2100.2  Type=RHF/CANONICAL (state 1.1)

 Number of N-1 electron functions:              10
 Number of N-2 electron functions:              55
 Number of singly external CSFs:              1257
 Number of doubly external CSFs:           2395068
 Total number of CSFs:                     2396326

 Length of J-op  integral file:               0.00 MB
 Length of K-op  integral file:               3.89 MB
 Length of 3-ext integral record:             0.00 MB

 For full I/O caching in triples, increase memory by 15.20 Mwords to 265.48 Mwords.

 Integral transformation finished. Total CPU:  12.89 sec, npass=  1  Memory used:  38.22 MW

 Reference energy:                  -1745.52864788

 MP2 singlet pair energy:              -0.50795707
 MP2 triplet pair energy:              -0.45264901
 MP2 correlation energy:               -0.96060607
 MP2 total energy:                  -1746.48925395

 SCS-MP2 correlation energy:           -0.89119675   (PS=  1.200000  PT=  0.333333)
 SCS-MP2 total energy:              -1746.41984463

 ITER.      SQ.NORM     CORR.ENERGY   TOTAL ENERGY   ENERGY CHANGE        DEN1      VAR(S)    VAR(P)  DIIS     TIME
   1      1.18410384    -0.87971802 -1746.40836589     0.08088806     0.12538820  0.85D-02  0.12D-01  1  1    16.90
   2      1.19860608    -0.86761384 -1746.39626172     0.01210417    -0.02706940  0.47D-03  0.56D-03  2  2    20.78
   3      1.20628641    -0.86906309 -1746.39771097    -0.00144925    -0.00236041  0.32D-03  0.11D-03  3  3    24.69
   4      1.21421899    -0.86899015 -1746.39763803     0.00007294    -0.00290072  0.11D-03  0.31D-04  4  4    28.53
   5      1.22092818    -0.86930483 -1746.39795271    -0.00031468    -0.00109276  0.52D-04  0.58D-05  5  5    32.40
   6      1.22521544    -0.86937693 -1746.39802481    -0.00007210    -0.00029196  0.26D-04  0.27D-05  5  1    36.31
   7      1.22868497    -0.86941268 -1746.39806056    -0.00003576    -0.00023488  0.12D-04  0.16D-05  5  2    40.17
   8      1.23260477    -0.86943048 -1746.39807836    -0.00001779    -0.00012894  0.40D-05  0.61D-06  5  4    44.05
   9      1.23498406    -0.86938951 -1746.39803739     0.00004097    -0.00009953  0.12D-05  0.23D-06  5  3    47.94
  10      1.23591954    -0.86937721 -1746.39802509     0.00001230    -0.00001512  0.38D-06  0.87D-07  5  5    51.83
  11      1.23630998    -0.86937230 -1746.39802018     0.00000490     0.00001638  0.90D-07  0.28D-07  5  1    55.72
  12      1.23637934    -0.86937229 -1746.39802017     0.00000001     0.00000736  0.25D-07  0.84D-08  5  2    59.59
  13      1.23639967    -0.86937249 -1746.39802036    -0.00000019     0.00000687  0.72D-08  0.23D-08  5  4    63.49
  14      1.23639094    -0.86937216 -1746.39802004     0.00000033     0.00000237  0.23D-08  0.71D-09  5  3    67.39
  15      1.23637454    -0.86937248 -1746.39802036    -0.00000033     0.00000124  0.12D-08  0.23D-09  5  5    71.27
  16      1.23635545    -0.86937273 -1746.39802061    -0.00000025     0.00000125  0.50D-09  0.79D-10  5  1    75.16
  17      1.23633676    -0.86937304 -1746.39802091    -0.00000031     0.00000072  0.20D-09  0.36D-10  5  2    79.05
  18      1.23632371    -0.86937335 -1746.39802123    -0.00000031     0.00000060  0.85D-10  0.18D-10  5  4    82.92
  19      1.23631208    -0.86937360 -1746.39802148    -0.00000025     0.00000044  0.27D-10  0.77D-11  5  3    86.79
  20      1.23630551    -0.86937376 -1746.39802164    -0.00000017     0.00000022  0.67D-11  0.25D-11  5  5    90.65
  21      1.23630230    -0.86937385 -1746.39802173    -0.00000009     0.00000014  0.20D-11  0.62D-12  5  1    94.51
  22      1.23630123    -0.86937387 -1746.39802175    -0.00000002     0.00000002  0.60D-12  0.24D-12  5  2    98.37
  23      1.23630000    -0.86937390 -1746.39802178    -0.00000003     0.00000007  0.11D-12  0.39D-13  5  3   102.31
  24      1.23629988    -0.86937390 -1746.39802178     0.00000000     0.00000001  0.39D-13  0.96D-14  5  4   106.19
  25      1.23629974    -0.86937390 -1746.39802178     0.00000000     0.00000001  0.15D-13  0.26D-14  5  3   110.04
  26      1.23629969    -0.86937390 -1746.39802178     0.00000000     0.00000000  0.28D-14  0.87D-15  5  5   113.91
  27      1.23629969    -0.86937390 -1746.39802178     0.00000000     0.00000000  0.97D-15  0.29D-15  5  1   117.76

 Norm of t1 vector:      0.18070608      S-energy:     0.00000005      T1 diagnostic:  0.02857214
                                                                       D1 diagnostic:  0.10576746

 Singles amplitudes (print threshold =  0.500E-01):

         I         SYM. A    A   T(IA)

         5         1         1      0.07000315


 Total CPU time for triples:     71.49 sec


 RESULTS
 =======

  Reference energy                  -1745.528647879542
  CCSD singlet pair energy             -0.496559087624
  CCSD triplet pair energy             -0.372814866676
  CCSD correlation energy              -0.869373904342

  Triples (T) contribution             -0.049223220912
  Total correlation energy             -0.918597125254

  CCSD total energy                 -1746.398021783884
  CCSD[T] energy                    -1746.453070795451
  CCSD-T energy                     -1746.446725923903
 !CCSD(T) total energy              -1746.447245004796

 Timing summary (sec):

 STEP                 CPU(USER)    SYS     CPU(TOT)    WALL
 Transformation         12.98      1.92     14.90     21.75
 CCSD iterations       104.80     12.38    117.18    120.26
 Triples                71.49      1.55     73.04     73.38

 Program statistics:

 Available memory in ccsd:               249999500
 Min. memory needed in ccsd:               6567352
 Max. memory used in ccsd:                 8681974
 Max. memory used in cckext:              10281118 (27 integral passes)



 **********************************************************************************************************************************
 DATASETS  * FILE   NREC   LENGTH (MB)   RECORD NAMES
              1      23      878.07       500      610      700      900      950      970     1000      129      960     1700   
                                          VAR    BASINP    GEOM    SYMINP    ZMAT    AOBASIS   BASIS     P2S    ABASIS    OPER   
                                         1101     1401     1411     1412     1650     1100     1400     1410     1200     1210   
                                          SR      EKINR    POTR     PVPR    MOLCAS      S      EKIN      POT      H0       H01  
                                         1080     1600     1380   
                                         AOSYM     SMH     JKOP   

              2       6        2.55       500      610      700     1000      520     2100   
                                          VAR    BASINP    GEOM     BASIS   MCVARS     RHF  

 PROGRAMS   *        TOTAL   CCSD(T)       RHF       INT      FILE
 CPU TIMES  *       361.00    189.35     10.17    161.05      0.04
 REAL TIME  *       398.29 SEC
 DISK USED  *        17.23 GB      
 SF USED    *         1.11 GB      
 GA USED    *         0.00 MB       (max)       0.00 MB       (current)
 **********************************************************************************************************************************


 PROGRAM * OPT (Geometry optimization)     Authors: F. Eckert and H.-J. Werner


 BFGS update of hessian

 Geometry optimization using start command=LABEL

 Geometry written to block  1 of record 700

 *** Long output written to logfile /home/ndyonker/chem/CuCN-CuNC/CN/ccsd_t/av5z-dk/1.log ***


 Making model hessian for Z-matrix coordinates

 Quadratic Steepest Descent - Minimum Search

 ITER.   ENERGY(OLD)    ENERGY(NEW)      DE          GRADMAX     GRADNORM    GRADRMS     STEPMAX     STEPLEN     STEPRMS   CPU-time
   1 -1746.44724500 -1746.44819652    -0.00095152  0.02094600  0.02152815  0.01522270  0.05253050  0.05268041  0.02634020   1844.29
   2 -1746.44819652 -1746.44893362    -0.00073710  0.01470837  0.01471385  0.01040426  0.12355952  0.12356191  0.06178096   3690.69
   3 -1746.44893362 -1746.44897427    -0.00004065  0.00375406  0.00387990  0.00274351  0.02511002  0.02512068  0.01256034   5528.76
   4 -1746.44897427 -1746.44897501    -0.00000074  0.00048335  0.00048378  0.00034208  0.00286609  0.00286619  0.00143309   7359.32
   5 -1746.44897501 -1746.44897501    -0.00000001  0.00001364  0.00001579  0.00001116  0.00008347  0.00008375  0.00004188   9203.15
   6 -1746.44897501 -1746.44897497     0.00000004  0.00000053  0.00000053  0.00000037  0.00000043  0.00000049  0.00000025  11046.53

 END OF GEOMETRY OPTIMIZATION.

 Optimized variables
 MC=                  1.82581374 ANGSTROM
 NC=                  1.16608756 ANGSTROM

 **********************************************************************************************************************************

 Current geometry (xyz format, in Angstrom)

    3
 CCSD(T)/AV5Z-DK  ENERGY=-1746.44897497
 Cu         0.0000000000        0.0000000000       -0.7127498378
 C          0.0000000000        0.0000000000        1.1130638978
 N          0.0000000000        0.0000000000        2.2791514574

 **********************************************************************************************************************************

 Geometry written to block  1 of record 700


 **********************************************************************************************************************************
 DATASETS  * FILE   NREC   LENGTH (MB)   RECORD NAMES
              1      23      878.07       500      610      700      900      950      970     1000      129      960     1700   
                                          VAR    BASINP    GEOM    SYMINP    ZMAT    AOBASIS   BASIS     P2S    ABASIS    OPER   
                                         1101     1401     1411     1412     1650     1100     1400     1410     1200     1210   
                                          SR      EKINR    POTR     PVPR    MOLCAS      S      EKIN      POT      H0       H01  
                                         1080     1600     1380   
                                         AOSYM     SMH     JKOP   

              2       7        3.69       500      610      700     1000      520     2100     5600   
                                          VAR    BASINP    GEOM     BASIS   MCVARS     RHF     GINFO   

 PROGRAMS   *        TOTAL      OPTG   CCSD(T)       RHF       INT      FILE
 CPU TIMES  *     11407.54  11046.53    189.35     10.17    161.05      0.04
 REAL TIME  *     12687.05 SEC
 DISK USED  *        24.23 GB      
 SF USED    *         1.11 GB      
 GA USED    *         0.00 MB       (max)       0.00 MB       (current)
 **********************************************************************************************************************************

   OPTG(CCSD(T))        CCSD(T)         RHF-SCF 
  -1746.44897497  -1746.44724500  -1745.52864788
 **********************************************************************************************************************************
 Variable memory released
