
 Primary working directories    : /data/scratch/ndyonker/468595.pbs
 Secondary working directories  : /data/scratch/ndyonker/468595.pbs
 Wavefunction directory         : /home/ndyonker/wfu/
 Main file repository           : /data/scratch/ndyonker/468595.pbs/

 SHA1      : 34d8ac85455960de72dbdee61d212e2fba42fc0e
 NAME      : 2012.1.27
 ARCHNAME  : Linux/x86_64
 FC        : /public/apps/pgi/149/linux86-64/14.9/bin/pgf90
 FCVERSION : 14.9-0
 BLASLIB   : -L/public/apps/intel/2015/mkl/lib/intel64 -lmkl_intel_ilp64 -lmkl_sequential -lmkl_core
 id        : mem

 Nodes     nprocs
 n47         12
 ga_uses_ma=false, calling ma_init with nominal heap.
 GA-space will be limited to   8.0 MW (determined by -G option)

 Using customized tuning parameters: mindgm=7; mindgv=24; mindgc=1; mindgr=1; noblas=0; minvec=7
 default implementation of scratch files=sf  

  ***,CuCN
  memory,1000,m;
  file,2,fecn4dpvqz.wfu,new
  gthresh,energy=1.d-9,optgrad=1.d-5
 
  print orbitals,basis
 
  mc=1.879471684,nc=1.16609067
 
  geometry={angstrom
            cu
            c,cu,mc
            n,c,nc,cu,180.0}
 
  basis=cc-pwcvqz-dk
  dkroll=1
  dkho=2
 
 label
   {rhf;wf,42,1,0;closed,12,4,4,1;start,atdens;save,2100.2;}
   {ccsd(t),maxit=200,shifts=0.5,shiftp=0.5,thrdis=1.0;diis,1,1,5,1;core,3,1,1;orbit,2100.2; }
   {optg,startcmd=label;numerical}
 
 

 Variables initialized (782), CPU time= 0.06 sec
 Commands  initialized (547), CPU time= 0.05 sec, 517 directives.
 Default parameters read. Elapsed time= 1.23 sec

 Checking input...
 Passed
1


                                         ***  PROGRAM SYSTEM MOLPRO  ***
                         Copyright, University College Cardiff Consultants Limited, 2008

                                    Version 2012.1 linked Sep  1 2015 17:13:12


 **********************************************************************************************************************************
 LABEL *                                                                                 
 Linux-2.6.32-504.16.2.el6.665g0000.x86_64/n47(x86_64) 64 bit mpp version                DATE: 13-Jun-16          TIME: 15:22:51  
 **********************************************************************************************************************************

 SHA1:             34d8ac85455960de72dbdee61d212e2fba42fc0e
 **********************************************************************************************************************************

 Variable memory set to 1000000000 words,  buffer space   230000 words



 Permanent file  2  fecn4dpvqz.wfu   assigned.  Implementation=df  
 


 **********************************************************************************************************************************
 DATASETS  * FILE   NREC   LENGTH (MB)   RECORD NAMES
              2       1        0.03       500   
                                          VAR  

 PROGRAMS   *        TOTAL      FILE
 CPU TIMES  *         0.87      0.36
 REAL TIME  *         2.25 SEC
 DISK USED  *         0.39 MB      
 **********************************************************************************************************************************

 THRESHOLDS:

 ZERO    =  1.00D-12  ONEINT  =  1.00D-12  TWOINT  =  1.00D-11  PREFAC  =  1.00D-14  LOCALI  =  1.00D-09  EORDER  =  1.00D-04
 ENERGY  =  1.00D-09  ETEST   =  0.00D+00  EDENS   =  0.00D+00  THRDEDEF=  1.00D-06  GRADIENT=  1.00D-02  STEP    =  1.00D-03
 ORBITAL =  1.00D-05  CIVEC   =  1.00D-05  COEFF   =  1.00D-04  PRINTCI =  5.00D-02  PUNCHCI =  9.90D+01  OPTGRAD =  1.00D-05
 OPTENERG=  1.00D-06  OPTSTEP =  3.00D-04  THRGRAD =  1.00D-10  COMPRESS=  1.00D-11  VARMIN  =  1.00D-07  VARMAX  =  1.00D-03
 THRDOUB =  0.00D+00  THRDIV  =  1.00D-05  THRRED  =  1.00D-07  THRPSP  =  1.00D+00  THRDC   =  1.00D-10  THRCS   =  1.00D-10
 THRNRM  =  1.00D-08  THREQ   =  0.00D+00  THRDE   =  1.00D+00  THRREF  =  1.00D-05  SPARFAC =  1.00D+00  THRDLP  =  1.00D-07
 THRDIA  =  1.00D-10  THRDLS  =  1.00D-07  THRGPS  =  0.00D+00  THRKEX  =  0.00D+00  THRDIS  =  2.00D-01  THRVAR  =  1.00D-10
 THRLOC  =  1.00D-06  THRGAP  =  1.00D-06  THRLOCT = -1.00D+00  THRGAPT = -1.00D+00  THRORB  =  1.00D-06  THRMLTP =  0.00D+00
 THRCPQCI=  1.00D-10  KEXTA   =  0.00D+00  THRCOARS=  0.00D+00  SYMTOL  =  1.00D-06  GRADTOL =  1.00D-06  THROVL  =  1.00D-08
 THRORTH =  1.00D-08  GRID    =  1.00D-06  GRIDMAX =  1.00D-03  DTMAX   =  0.00D+00  THROCCDE=  1.00D-01  THROCCDE=  1.00D-01



 SETTING MC             =         1.87947168                                  
 SETTING NC             =         1.16609067                                  
 SETTING BASIS          =    CC-PWCVQZ-DK
 SETTING DKROLL         =         1.00000000                                  
 SETTING DKHO           =         2.00000000                                  


 Recomputing integrals since basis changed


 Using spherical harmonics

 Library entry CU     S cc-pwCVQZ-DK         selected for orbital group  1
 Library entry CU     P cc-pwCVQZ-DK         selected for orbital group  1
 Library entry CU     D cc-pwCVQZ-DK         selected for orbital group  1
 Library entry CU     F cc-pwCVQZ-DK         selected for orbital group  1
 Library entry CU     G cc-pwCVQZ-DK         selected for orbital group  1
 Library entry CU     H cc-pwCVQZ-DK         selected for orbital group  1
 Library entry C      S cc-pwCVQZ-DK         selected for orbital group  2
 Library entry C      P cc-pwCVQZ-DK         selected for orbital group  2
 Library entry C      D cc-pwCVQZ-DK         selected for orbital group  2
 Library entry C      F cc-pwCVQZ-DK         selected for orbital group  2
 Library entry C      G cc-pwCVQZ-DK         selected for orbital group  2
 Library entry N      S cc-pwCVQZ-DK         selected for orbital group  3
 Library entry N      P cc-pwCVQZ-DK         selected for orbital group  3
 Library entry N      D cc-pwCVQZ-DK         selected for orbital group  3
 Library entry N      F cc-pwCVQZ-DK         selected for orbital group  3
 Library entry N      G cc-pwCVQZ-DK         selected for orbital group  3

1PROGRAM * SEWARD (Integral evaluation for generally contracted gaussian basis sets)     Author: Roland Lindh, 1990

 Geometry written to block  1 of record 700

 Orientation using atomic masses  
 Molecule type: Linear
 Symmetry elements: X,Y
 Rotational constants:       4.0483790      4.0483790      0.0000000 GHz  (calculated with average atomic masses)

 Point group  C2v 



 ATOMIC COORDINATES

 NR  ATOM    CHARGE       X              Y              Z

   1  CU     29.00    0.000000000    0.000000000   -1.376358644
   2  C       6.00    0.000000000    0.000000000    2.175328110
   3  N       7.00    0.000000000    0.000000000    4.378920121

 Bond lengths in Bohr (Angstrom)

 1-2  3.551686755  2-3  2.203592011
     ( 1.879471684)     ( 1.166090670)

 Bond angles

  1-2-3  179.99999829


 BASIS DATA

   Nr Sym  Nuc  Type         Exponents   Contraction coefficients

    1.1 A1    1  1s    16665490.000000     0.000069   -0.000039    0.000009   -0.000002   -0.000003   -0.000007
                                          -0.000007    0.000000
    2.1 A1              2495213.000000     0.000192   -0.000108    0.000024   -0.000005   -0.000009   -0.000019
                                          -0.000020    0.000000
    3.1 A1               567850.700000     0.000502   -0.000283    0.000064   -0.000013   -0.000024   -0.000049
                                          -0.000052    0.000000
    4.1 A1               160853.100000     0.001200   -0.000676    0.000153   -0.000031   -0.000059   -0.000117
                                          -0.000121    0.000000
    5.1 A1                52481.860000     0.002812   -0.001588    0.000359   -0.000073   -0.000137   -0.000272
                                          -0.000300    0.000000
    6.1 A1                18948.850000     0.006576   -0.003730    0.000847   -0.000173   -0.000332   -0.000658
                                          -0.000641    0.000000
    7.1 A1                 7391.655000     0.015563   -0.008880    0.002024   -0.000413   -0.000758   -0.001515
                                          -0.001783    0.000000
    8.1 A1                 3066.517000     0.036660   -0.021223    0.004900   -0.001002   -0.001956   -0.003859
                                          -0.003463    0.000000
                           1337.994000     0.082401   -0.048899    0.011473   -0.002344   -0.004214   -0.008469
                                          -0.010778    0.000000
                            608.783000     0.164332   -0.103322    0.025341   -0.005192   -0.010372   -0.020392
                                          -0.016322    0.000000
                            286.898000     0.262145   -0.184178    0.048325   -0.009891   -0.017144   -0.034896
                                          -0.050821    0.000000
                            139.153000     0.276466   -0.246279    0.073892   -0.015245   -0.032526   -0.063408
                                          -0.034451    0.000000
                             68.494550     0.147890   -0.155758    0.050915   -0.010449   -0.012017   -0.028078
                                          -0.101172    0.000000
                             31.601080     0.071599    0.208389   -0.108314    0.022566    0.023963    0.057058
                                           0.224667    0.000000
                             15.991580     0.114422    0.550074   -0.391449    0.086448    0.211961    0.430275
                                           0.169943    0.000000
                              8.056510     0.074733    0.349980   -0.336991    0.075331    0.084280    0.297302
                                           1.113261    0.000000
                              3.690329     0.008901    0.043809    0.322344   -0.084213   -0.089472   -0.772365
                                          -3.563214    0.000000
                              1.762902    -0.000324   -0.003669    0.682957   -0.215165   -0.809196   -1.579862
                                           2.767509    0.000000
                              0.801269    -0.000058   -0.000507    0.297028   -0.186623    0.324217    2.535085
                                           0.218880    0.000000
                              0.184243    -0.000013   -0.000186    0.011974    0.289928    1.447289   -0.551653
                                          -3.266031    0.000000
                              0.081793     0.000007    0.000115   -0.002692    0.572278   -0.443132   -1.312257
                                           4.560972    0.000000
                              0.035303    -0.000003   -0.000039    0.001911    0.287101   -0.881848    1.281861
                                          -2.247963    1.000000
    9.1 A1    1  1s           7.231000     1.000000
   10.1 A1    1  1s           1.908000     1.000000
   11.1 A1    1  2pz      48218.410000     0.000061   -0.000022    0.000004    0.000009    0.000017    0.000021
                                           0.000000
   12.1 A1                11420.550000     0.000218   -0.000079    0.000015    0.000030    0.000058    0.000080
                                           0.000000
   13.1 A1                 3713.569000     0.000873   -0.000317    0.000062    0.000124    0.000246    0.000299
                                           0.000000
   14.1 A1                 1423.762000     0.003199   -0.001167    0.000226    0.000443    0.000842    0.001199
                                           0.000000
   15.1 A1                  606.604100     0.010915   -0.004002    0.000784    0.001574    0.003131    0.003744
                                           0.000000
   16.1 A1                  278.256400     0.032865   -0.012228    0.002370    0.004634    0.008787    0.012708
                                           0.000000
   17.1 A1                  134.844900     0.085258   -0.032463    0.006388    0.012844    0.025709    0.030332
                                           0.000000
                             68.122540     0.180269   -0.071294    0.013859    0.026970    0.050752    0.075983
                                           0.000000
                             35.400880     0.293029   -0.121022    0.024114    0.049120    0.100255    0.108502
                                           0.000000
                             18.790290     0.328203   -0.142145    0.027571    0.052993    0.100525    0.205154
                                           0.000000
                             10.083560     0.203772   -0.036368    0.007097    0.020617    0.073350    0.057015
                                           0.000000
                              5.346120     0.051461    0.212547   -0.051924   -0.122665   -0.388726   -0.911782
                                           0.000000
                              2.775228     0.001373    0.409867   -0.092604   -0.191191   -0.449547   -0.540962
                                           0.000000
                              1.407564    -0.001893    0.365324   -0.105564   -0.207443   -0.076617    1.949762
                                           0.000000
                              0.687213    -0.001034    0.155916    0.006378    0.192646    1.182070   -0.588039
                                           0.000000
                              0.247397    -0.000060    0.015497    0.311776    0.649001   -0.099659   -1.130224
                                           0.000000
                              0.096187     0.000000   -0.001545    0.540751    0.328732   -0.717121    1.044146
                                           0.000000
                              0.036948    -0.000001    0.000593    0.282074    0.010004    0.005455    0.000128
                                           1.000000
   18.1 A1    1  2pz         11.921800     1.000000
   19.1 A1    1  2pz          3.232500     1.000000
   20.1 A1    1  3d0        556.317000     0.000261
                            163.692000     0.002344
                             62.797300     0.012486
                             27.247800     0.044282
                             12.629800     0.115934
                              6.103410     0.217450
                              2.965448     0.291421
                              1.412653     0.298357
                              0.649845     0.237986
                              0.283701     0.133253
                              0.113329     0.035124
   21.1 A1    1  3d2+       556.317000     0.000261
                            163.692000     0.002344
                             62.797300     0.012486
                             27.247800     0.044282
                             12.629800     0.115934
                              6.103410     0.217450
                              2.965448     0.291421
                              1.412653     0.298357
                              0.649845     0.237986
                              0.283701     0.133253
                              0.113329     0.035124
   22.1 A1    1  3d0        556.317000    -0.000324
                            163.692000    -0.002918
                             62.797300    -0.015594
                             27.247800    -0.055961
                             12.629800    -0.151816
                              6.103410    -0.279787
                              2.965448    -0.271533
                              1.412653     0.018090
                              0.649845     0.356204
                              0.283701     0.420160
                              0.113329     0.193778
   23.1 A1    1  3d2+       556.317000    -0.000324
                            163.692000    -0.002918
                             62.797300    -0.015594
                             27.247800    -0.055961
                             12.629800    -0.151816
                              6.103410    -0.279787
                              2.965448    -0.271533
                              1.412653     0.018090
                              0.649845     0.356204
                              0.283701     0.420160
                              0.113329     0.193778
   24.1 A1    1  3d0        556.317000     0.000389
                            163.692000     0.003534
                             62.797300     0.018936
                             27.247800     0.068928
                             12.629800     0.197272
                              6.103410     0.348736
                              2.965448     0.059703
                              1.412653    -0.559699
                              0.649845    -0.388026
                              0.283701     0.438327
                              0.113329     0.488863
   25.1 A1    1  3d2+       556.317000     0.000389
                            163.692000     0.003534
                             62.797300     0.018936
                             27.247800     0.068928
                             12.629800     0.197272
                              6.103410     0.348736
                              2.965448     0.059703
                              1.412653    -0.559699
                              0.649845    -0.388026
                              0.283701     0.438327
                              0.113329     0.488863
   26.1 A1    1  3d0        556.317000    -0.000603
                            163.692000    -0.005054
                             62.797300    -0.029320
                             27.247800    -0.101632
                             12.629800    -0.352673
                              6.103410    -0.421389
                              2.965448     0.734330
                              1.412653     0.556494
                              0.649845    -0.976545
                              0.283701    -0.089913
                              0.113329     0.654332
   27.1 A1    1  3d2+       556.317000    -0.000603
                            163.692000    -0.005054
                             62.797300    -0.029320
                             27.247800    -0.101632
                             12.629800    -0.352673
                              6.103410    -0.421389
                              2.965448     0.734330
                              1.412653     0.556494
                              0.649845    -0.976545
                              0.283701    -0.089913
                              0.113329     0.654332
   28.1 A1    1  3d0        556.317000     0.000000
                            163.692000     0.000000
                             62.797300     0.000000
                             27.247800     0.000000
                             12.629800     0.000000
                              6.103410     0.000000
                              2.965448     0.000000
                              1.412653     0.000000
                              0.649845     0.000000
                              0.283701     0.000000
                              0.113329     1.000000
   29.1 A1    1  3d2+       556.317000     0.000000
                            163.692000     0.000000
                             62.797300     0.000000
                             27.247800     0.000000
                             12.629800     0.000000
                              6.103410     0.000000
                              2.965448     0.000000
                              1.412653     0.000000
                              0.649845     0.000000
                              0.283701     0.000000
                              0.113329     1.000000
   30.1 A1    1  3d0          8.480400     1.000000
   31.1 A1    1  3d2+         8.480400     1.000000
   32.1 A1    1  3d0          4.455300     1.000000
   33.1 A1    1  3d2+         4.455300     1.000000
   34.1 A1    1  4f0         11.946300     1.000000
   35.1 A1    1  4f2+        11.946300     1.000000
   36.1 A1    1  4f0          5.034500     1.000000
   37.1 A1    1  4f2+         5.034500     1.000000
   38.1 A1    1  4f0          2.121700     1.000000
   39.1 A1    1  4f2+         2.121700     1.000000
   40.1 A1    1  4f0          0.728400     1.000000
   41.1 A1    1  4f2+         0.728400     1.000000
   42.1 A1    1  5g0          9.593400     1.000000
   43.1 A1    1  5g4+         9.593400     1.000000
   44.1 A1    1  5g2+         9.593400     1.000000
   45.1 A1    1  5g0          4.308300     1.000000
   46.1 A1    1  5g4+         4.308300     1.000000
   47.1 A1    1  5g2+         4.308300     1.000000
   48.1 A1    1  5g0          1.749400     1.000000
   49.1 A1    1  5g4+         1.749400     1.000000
   50.1 A1    1  5g2+         1.749400     1.000000
   51.1 A1    1  6h2+         8.570400     1.000000
   52.1 A1    1  6h4+         8.570400     1.000000
   53.1 A1    1  6h0          8.570400     1.000000
   54.1 A1    1  6h2+         3.729300     1.000000
   55.1 A1    1  6h4+         3.729300     1.000000
   56.1 A1    1  6h0          3.729300     1.000000
   57.1 A1    2  1s       33980.000000     0.000163   -0.000035    0.000000    0.000000    0.000000
   58.1 A1                 5089.000000     0.000813   -0.000174    0.000000    0.000000    0.000000
   59.1 A1                 1157.000000     0.003848   -0.000819    0.000000    0.000000    0.000000
   60.1 A1                  326.600000     0.015577   -0.003374    0.000000    0.000000    0.000000
   61.1 A1                  106.100000     0.053217   -0.011587    0.000000    0.000000    0.000000
                             38.110000     0.147319   -0.034262    0.000000    0.000000    0.000000
                             14.750000     0.305706   -0.077252    0.000000    0.000000    0.000000
                              6.035000     0.399069   -0.141542    0.000000    0.000000    0.000000
                              2.530000     0.216764   -0.117668    0.000000    0.000000    0.000000
                              0.735500     0.015860    0.274350    1.000000    0.000000    0.000000
                              0.290500    -0.003072    0.586366    0.000000    1.000000    0.000000
                              0.111100     0.000974    0.284977    0.000000    0.000000    1.000000
   62.1 A1    2  1s           5.584000     1.000000
   63.1 A1    2  1s          15.109000     1.000000
   64.1 A1    2  1s          40.881000     1.000000
   65.1 A1    2  2pz         34.510000     0.005408    0.000000    0.000000    0.000000
   66.1 A1                    7.915000     0.036168    0.000000    0.000000    0.000000
   67.1 A1                    2.368000     0.142519    0.000000    0.000000    0.000000
   68.1 A1                    0.813200     0.342100    1.000000    0.000000    0.000000
                              0.289000     0.463796    0.000000    1.000000    0.000000
                              0.100700     0.250142    0.000000    0.000000    1.000000
   69.1 A1    2  2pz          5.996000     1.000000
   70.1 A1    2  2pz         18.057000     1.000000
   71.1 A1    2  2pz         54.382000     1.000000
   72.1 A1    2  3d0          1.848000     1.000000
   73.1 A1    2  3d2+         1.848000     1.000000
   74.1 A1    2  3d0          0.649000     1.000000
   75.1 A1    2  3d2+         0.649000     1.000000
   76.1 A1    2  3d0          0.228000     1.000000
   77.1 A1    2  3d2+         0.228000     1.000000
   78.1 A1    2  3d0          5.888000     1.000000
   79.1 A1    2  3d2+         5.888000     1.000000
   80.1 A1    2  3d0         22.804000     1.000000
   81.1 A1    2  3d2+        22.804000     1.000000
   82.1 A1    2  4f0          1.419000     1.000000
   83.1 A1    2  4f2+         1.419000     1.000000
   84.1 A1    2  4f0          0.485000     1.000000
   85.1 A1    2  4f2+         0.485000     1.000000
   86.1 A1    2  4f0          6.116000     1.000000
   87.1 A1    2  4f2+         6.116000     1.000000
   88.1 A1    2  5g0          1.011000     1.000000
   89.1 A1    2  5g4+         1.011000     1.000000
   90.1 A1    2  5g2+         1.011000     1.000000
   91.1 A1    3  1s       45840.000000     0.000184   -0.000041    0.000000    0.000000    0.000000
   92.1 A1                 6868.000000     0.000865   -0.000192    0.000000    0.000000    0.000000
   93.1 A1                 1563.000000     0.003962   -0.000873    0.000000    0.000000    0.000000
   94.1 A1                  442.400000     0.015829   -0.003550    0.000000    0.000000    0.000000
   95.1 A1                  144.300000     0.053543   -0.012074    0.000000    0.000000    0.000000
                             52.180000     0.147171   -0.035538    0.000000    0.000000    0.000000
                             20.340000     0.304773   -0.080199    0.000000    0.000000    0.000000
                              8.381000     0.397301   -0.146788    0.000000    0.000000    0.000000
                              3.529000     0.217233   -0.115852    0.000000    0.000000    0.000000
                              1.054000     0.016921    0.280695    1.000000    0.000000    0.000000
                              0.411800    -0.002737    0.585282    0.000000    1.000000    0.000000
                              0.155200     0.000950    0.283370    0.000000    0.000000    1.000000
   96.1 A1    3  1s           7.829000     1.000000
   97.1 A1    3  1s          20.735000     1.000000
   98.1 A1    3  1s          54.917000     1.000000
   99.1 A1    3  2pz         49.330000     0.005579    0.000000    0.000000    0.000000
  100.1 A1                   11.370000     0.038025    0.000000    0.000000    0.000000
  101.1 A1                    3.435000     0.149085    0.000000    0.000000    0.000000
  102.1 A1                    1.182000     0.348875    1.000000    0.000000    0.000000
                              0.417300     0.458877    0.000000    1.000000    0.000000
                              0.142800     0.245032    0.000000    0.000000    1.000000
  103.1 A1    3  2pz          8.554000     1.000000
  104.1 A1    3  2pz         25.190000     1.000000
  105.1 A1    3  2pz         74.185000     1.000000
  106.1 A1    3  3d0          2.837000     1.000000
  107.1 A1    3  3d2+         2.837000     1.000000
  108.1 A1    3  3d0          0.968000     1.000000
  109.1 A1    3  3d2+         0.968000     1.000000
  110.1 A1    3  3d0          0.335000     1.000000
  111.1 A1    3  3d2+         0.335000     1.000000
  112.1 A1    3  3d0          8.693000     1.000000
  113.1 A1    3  3d2+         8.693000     1.000000
  114.1 A1    3  3d0         31.167000     1.000000
  115.1 A1    3  3d2+        31.167000     1.000000
  116.1 A1    3  4f0          2.027000     1.000000
  117.1 A1    3  4f2+         2.027000     1.000000
  118.1 A1    3  4f0          0.685000     1.000000
  119.1 A1    3  4f2+         0.685000     1.000000
  120.1 A1    3  4f0          8.972000     1.000000
  121.1 A1    3  4f2+         8.972000     1.000000
  122.1 A1    3  5g0          1.427000     1.000000
  123.1 A1    3  5g4+         1.427000     1.000000
  124.1 A1    3  5g2+         1.427000     1.000000
    1.2 B1    1  2px      48218.410000     0.000061   -0.000022    0.000004    0.000009    0.000017    0.000021
                                           0.000000
    2.2 B1                11420.550000     0.000218   -0.000079    0.000015    0.000030    0.000058    0.000080
                                           0.000000
    3.2 B1                 3713.569000     0.000873   -0.000317    0.000062    0.000124    0.000246    0.000299
                                           0.000000
    4.2 B1                 1423.762000     0.003199   -0.001167    0.000226    0.000443    0.000842    0.001199
                                           0.000000
    5.2 B1                  606.604100     0.010915   -0.004002    0.000784    0.001574    0.003131    0.003744
                                           0.000000
    6.2 B1                  278.256400     0.032865   -0.012228    0.002370    0.004634    0.008787    0.012708
                                           0.000000
    7.2 B1                  134.844900     0.085258   -0.032463    0.006388    0.012844    0.025709    0.030332
                                           0.000000
                             68.122540     0.180269   -0.071294    0.013859    0.026970    0.050752    0.075983
                                           0.000000
                             35.400880     0.293029   -0.121022    0.024114    0.049120    0.100255    0.108502
                                           0.000000
                             18.790290     0.328203   -0.142145    0.027571    0.052993    0.100525    0.205154
                                           0.000000
                             10.083560     0.203772   -0.036368    0.007097    0.020617    0.073350    0.057015
                                           0.000000
                              5.346120     0.051461    0.212547   -0.051924   -0.122665   -0.388726   -0.911782
                                           0.000000
                              2.775228     0.001373    0.409867   -0.092604   -0.191191   -0.449547   -0.540962
                                           0.000000
                              1.407564    -0.001893    0.365324   -0.105564   -0.207443   -0.076617    1.949762
                                           0.000000
                              0.687213    -0.001034    0.155916    0.006378    0.192646    1.182070   -0.588039
                                           0.000000
                              0.247397    -0.000060    0.015497    0.311776    0.649001   -0.099659   -1.130224
                                           0.000000
                              0.096187     0.000000   -0.001545    0.540751    0.328732   -0.717121    1.044146
                                           0.000000
                              0.036948    -0.000001    0.000593    0.282074    0.010004    0.005455    0.000128
                                           1.000000
    8.2 B1    1  2px         11.921800     1.000000
    9.2 B1    1  2px          3.232500     1.000000
   10.2 B1    1  3d1+       556.317000     0.000261   -0.000324    0.000389   -0.000603    0.000000
   11.2 B1                  163.692000     0.002344   -0.002918    0.003534   -0.005054    0.000000
   12.2 B1                   62.797300     0.012486   -0.015594    0.018936   -0.029320    0.000000
   13.2 B1                   27.247800     0.044282   -0.055961    0.068928   -0.101632    0.000000
   14.2 B1                   12.629800     0.115934   -0.151816    0.197272   -0.352673    0.000000
                              6.103410     0.217450   -0.279787    0.348736   -0.421389    0.000000
                              2.965448     0.291421   -0.271533    0.059703    0.734330    0.000000
                              1.412653     0.298357    0.018090   -0.559699    0.556494    0.000000
                              0.649845     0.237986    0.356204   -0.388026   -0.976545    0.000000
                              0.283701     0.133253    0.420160    0.438327   -0.089913    0.000000
                              0.113329     0.035124    0.193778    0.488863    0.654332    1.000000
   15.2 B1    1  3d1+         8.480400     1.000000
   16.2 B1    1  3d1+         4.455300     1.000000
   17.2 B1    1  4f1+        11.946300     1.000000
   18.2 B1    1  4f3+        11.946300     1.000000
   19.2 B1    1  4f1+         5.034500     1.000000
   20.2 B1    1  4f3+         5.034500     1.000000
   21.2 B1    1  4f1+         2.121700     1.000000
   22.2 B1    1  4f3+         2.121700     1.000000
   23.2 B1    1  4f1+         0.728400     1.000000
   24.2 B1    1  4f3+         0.728400     1.000000
   25.2 B1    1  5g1+         9.593400     1.000000
   26.2 B1    1  5g3+         9.593400     1.000000
   27.2 B1    1  5g1+         4.308300     1.000000
   28.2 B1    1  5g3+         4.308300     1.000000
   29.2 B1    1  5g1+         1.749400     1.000000
   30.2 B1    1  5g3+         1.749400     1.000000
   31.2 B1    1  6h1+         8.570400     1.000000
   32.2 B1    1  6h3+         8.570400     1.000000
   33.2 B1    1  6h5+         8.570400     1.000000
   34.2 B1    1  6h1+         3.729300     1.000000
   35.2 B1    1  6h3+         3.729300     1.000000
   36.2 B1    1  6h5+         3.729300     1.000000
   37.2 B1    2  2px         34.510000     0.005408    0.000000    0.000000    0.000000
   38.2 B1                    7.915000     0.036168    0.000000    0.000000    0.000000
   39.2 B1                    2.368000     0.142519    0.000000    0.000000    0.000000
   40.2 B1                    0.813200     0.342100    1.000000    0.000000    0.000000
                              0.289000     0.463796    0.000000    1.000000    0.000000
                              0.100700     0.250142    0.000000    0.000000    1.000000
   41.2 B1    2  2px          5.996000     1.000000
   42.2 B1    2  2px         18.057000     1.000000
   43.2 B1    2  2px         54.382000     1.000000
   44.2 B1    2  3d1+         1.848000     1.000000
   45.2 B1    2  3d1+         0.649000     1.000000
   46.2 B1    2  3d1+         0.228000     1.000000
   47.2 B1    2  3d1+         5.888000     1.000000
   48.2 B1    2  3d1+        22.804000     1.000000
   49.2 B1    2  4f1+         1.419000     1.000000
   50.2 B1    2  4f3+         1.419000     1.000000
   51.2 B1    2  4f1+         0.485000     1.000000
   52.2 B1    2  4f3+         0.485000     1.000000
   53.2 B1    2  4f1+         6.116000     1.000000
   54.2 B1    2  4f3+         6.116000     1.000000
   55.2 B1    2  5g1+         1.011000     1.000000
   56.2 B1    2  5g3+         1.011000     1.000000
   57.2 B1    3  2px         49.330000     0.005579    0.000000    0.000000    0.000000
   58.2 B1                   11.370000     0.038025    0.000000    0.000000    0.000000
   59.2 B1                    3.435000     0.149085    0.000000    0.000000    0.000000
   60.2 B1                    1.182000     0.348875    1.000000    0.000000    0.000000
                              0.417300     0.458877    0.000000    1.000000    0.000000
                              0.142800     0.245032    0.000000    0.000000    1.000000
   61.2 B1    3  2px          8.554000     1.000000
   62.2 B1    3  2px         25.190000     1.000000
   63.2 B1    3  2px         74.185000     1.000000
   64.2 B1    3  3d1+         2.837000     1.000000
   65.2 B1    3  3d1+         0.968000     1.000000
   66.2 B1    3  3d1+         0.335000     1.000000
   67.2 B1    3  3d1+         8.693000     1.000000
   68.2 B1    3  3d1+        31.167000     1.000000
   69.2 B1    3  4f1+         2.027000     1.000000
   70.2 B1    3  4f3+         2.027000     1.000000
   71.2 B1    3  4f1+         0.685000     1.000000
   72.2 B1    3  4f3+         0.685000     1.000000
   73.2 B1    3  4f1+         8.972000     1.000000
   74.2 B1    3  4f3+         8.972000     1.000000
   75.2 B1    3  5g1+         1.427000     1.000000
   76.2 B1    3  5g3+         1.427000     1.000000
    1.3 B2    1  2py      48218.410000     0.000061   -0.000022    0.000004    0.000009    0.000017    0.000021
                                           0.000000
    2.3 B2                11420.550000     0.000218   -0.000079    0.000015    0.000030    0.000058    0.000080
                                           0.000000
    3.3 B2                 3713.569000     0.000873   -0.000317    0.000062    0.000124    0.000246    0.000299
                                           0.000000
    4.3 B2                 1423.762000     0.003199   -0.001167    0.000226    0.000443    0.000842    0.001199
                                           0.000000
    5.3 B2                  606.604100     0.010915   -0.004002    0.000784    0.001574    0.003131    0.003744
                                           0.000000
    6.3 B2                  278.256400     0.032865   -0.012228    0.002370    0.004634    0.008787    0.012708
                                           0.000000
    7.3 B2                  134.844900     0.085258   -0.032463    0.006388    0.012844    0.025709    0.030332
                                           0.000000
                             68.122540     0.180269   -0.071294    0.013859    0.026970    0.050752    0.075983
                                           0.000000
                             35.400880     0.293029   -0.121022    0.024114    0.049120    0.100255    0.108502
                                           0.000000
                             18.790290     0.328203   -0.142145    0.027571    0.052993    0.100525    0.205154
                                           0.000000
                             10.083560     0.203772   -0.036368    0.007097    0.020617    0.073350    0.057015
                                           0.000000
                              5.346120     0.051461    0.212547   -0.051924   -0.122665   -0.388726   -0.911782
                                           0.000000
                              2.775228     0.001373    0.409867   -0.092604   -0.191191   -0.449547   -0.540962
                                           0.000000
                              1.407564    -0.001893    0.365324   -0.105564   -0.207443   -0.076617    1.949762
                                           0.000000
                              0.687213    -0.001034    0.155916    0.006378    0.192646    1.182070   -0.588039
                                           0.000000
                              0.247397    -0.000060    0.015497    0.311776    0.649001   -0.099659   -1.130224
                                           0.000000
                              0.096187     0.000000   -0.001545    0.540751    0.328732   -0.717121    1.044146
                                           0.000000
                              0.036948    -0.000001    0.000593    0.282074    0.010004    0.005455    0.000128
                                           1.000000
    8.3 B2    1  2py         11.921800     1.000000
    9.3 B2    1  2py          3.232500     1.000000
   10.3 B2    1  3d1-       556.317000     0.000261   -0.000324    0.000389   -0.000603    0.000000
   11.3 B2                  163.692000     0.002344   -0.002918    0.003534   -0.005054    0.000000
   12.3 B2                   62.797300     0.012486   -0.015594    0.018936   -0.029320    0.000000
   13.3 B2                   27.247800     0.044282   -0.055961    0.068928   -0.101632    0.000000
   14.3 B2                   12.629800     0.115934   -0.151816    0.197272   -0.352673    0.000000
                              6.103410     0.217450   -0.279787    0.348736   -0.421389    0.000000
                              2.965448     0.291421   -0.271533    0.059703    0.734330    0.000000
                              1.412653     0.298357    0.018090   -0.559699    0.556494    0.000000
                              0.649845     0.237986    0.356204   -0.388026   -0.976545    0.000000
                              0.283701     0.133253    0.420160    0.438327   -0.089913    0.000000
                              0.113329     0.035124    0.193778    0.488863    0.654332    1.000000
   15.3 B2    1  3d1-         8.480400     1.000000
   16.3 B2    1  3d1-         4.455300     1.000000
   17.3 B2    1  4f1-        11.946300     1.000000
   18.3 B2    1  4f3-        11.946300     1.000000
   19.3 B2    1  4f1-         5.034500     1.000000
   20.3 B2    1  4f3-         5.034500     1.000000
   21.3 B2    1  4f1-         2.121700     1.000000
   22.3 B2    1  4f3-         2.121700     1.000000
   23.3 B2    1  4f1-         0.728400     1.000000
   24.3 B2    1  4f3-         0.728400     1.000000
   25.3 B2    1  5g1-         9.593400     1.000000
   26.3 B2    1  5g3-         9.593400     1.000000
   27.3 B2    1  5g1-         4.308300     1.000000
   28.3 B2    1  5g3-         4.308300     1.000000
   29.3 B2    1  5g1-         1.749400     1.000000
   30.3 B2    1  5g3-         1.749400     1.000000
   31.3 B2    1  6h1-         8.570400     1.000000
   32.3 B2    1  6h3-         8.570400     1.000000
   33.3 B2    1  6h5-         8.570400     1.000000
   34.3 B2    1  6h1-         3.729300     1.000000
   35.3 B2    1  6h3-         3.729300     1.000000
   36.3 B2    1  6h5-         3.729300     1.000000
   37.3 B2    2  2py         34.510000     0.005408    0.000000    0.000000    0.000000
   38.3 B2                    7.915000     0.036168    0.000000    0.000000    0.000000
   39.3 B2                    2.368000     0.142519    0.000000    0.000000    0.000000
   40.3 B2                    0.813200     0.342100    1.000000    0.000000    0.000000
                              0.289000     0.463796    0.000000    1.000000    0.000000
                              0.100700     0.250142    0.000000    0.000000    1.000000
   41.3 B2    2  2py          5.996000     1.000000
   42.3 B2    2  2py         18.057000     1.000000
   43.3 B2    2  2py         54.382000     1.000000
   44.3 B2    2  3d1-         1.848000     1.000000
   45.3 B2    2  3d1-         0.649000     1.000000
   46.3 B2    2  3d1-         0.228000     1.000000
   47.3 B2    2  3d1-         5.888000     1.000000
   48.3 B2    2  3d1-        22.804000     1.000000
   49.3 B2    2  4f1-         1.419000     1.000000
   50.3 B2    2  4f3-         1.419000     1.000000
   51.3 B2    2  4f1-         0.485000     1.000000
   52.3 B2    2  4f3-         0.485000     1.000000
   53.3 B2    2  4f1-         6.116000     1.000000
   54.3 B2    2  4f3-         6.116000     1.000000
   55.3 B2    2  5g1-         1.011000     1.000000
   56.3 B2    2  5g3-         1.011000     1.000000
   57.3 B2    3  2py         49.330000     0.005579    0.000000    0.000000    0.000000
   58.3 B2                   11.370000     0.038025    0.000000    0.000000    0.000000
   59.3 B2                    3.435000     0.149085    0.000000    0.000000    0.000000
   60.3 B2                    1.182000     0.348875    1.000000    0.000000    0.000000
                              0.417300     0.458877    0.000000    1.000000    0.000000
                              0.142800     0.245032    0.000000    0.000000    1.000000
   61.3 B2    3  2py          8.554000     1.000000
   62.3 B2    3  2py         25.190000     1.000000
   63.3 B2    3  2py         74.185000     1.000000
   64.3 B2    3  3d1-         2.837000     1.000000
   65.3 B2    3  3d1-         0.968000     1.000000
   66.3 B2    3  3d1-         0.335000     1.000000
   67.3 B2    3  3d1-         8.693000     1.000000
   68.3 B2    3  3d1-        31.167000     1.000000
   69.3 B2    3  4f1-         2.027000     1.000000
   70.3 B2    3  4f3-         2.027000     1.000000
   71.3 B2    3  4f1-         0.685000     1.000000
   72.3 B2    3  4f3-         0.685000     1.000000
   73.3 B2    3  4f1-         8.972000     1.000000
   74.3 B2    3  4f3-         8.972000     1.000000
   75.3 B2    3  5g1-         1.427000     1.000000
   76.3 B2    3  5g3-         1.427000     1.000000
    1.4 A2    1  3d2-       556.317000     0.000261   -0.000324    0.000389   -0.000603    0.000000
    2.4 A2                  163.692000     0.002344   -0.002918    0.003534   -0.005054    0.000000
    3.4 A2                   62.797300     0.012486   -0.015594    0.018936   -0.029320    0.000000
    4.4 A2                   27.247800     0.044282   -0.055961    0.068928   -0.101632    0.000000
    5.4 A2                   12.629800     0.115934   -0.151816    0.197272   -0.352673    0.000000
                              6.103410     0.217450   -0.279787    0.348736   -0.421389    0.000000
                              2.965448     0.291421   -0.271533    0.059703    0.734330    0.000000
                              1.412653     0.298357    0.018090   -0.559699    0.556494    0.000000
                              0.649845     0.237986    0.356204   -0.388026   -0.976545    0.000000
                              0.283701     0.133253    0.420160    0.438327   -0.089913    0.000000
                              0.113329     0.035124    0.193778    0.488863    0.654332    1.000000
    6.4 A2    1  3d2-         8.480400     1.000000
    7.4 A2    1  3d2-         4.455300     1.000000
    8.4 A2    1  4f2-        11.946300     1.000000
    9.4 A2    1  4f2-         5.034500     1.000000
   10.4 A2    1  4f2-         2.121700     1.000000
   11.4 A2    1  4f2-         0.728400     1.000000
   12.4 A2    1  5g2-         9.593400     1.000000
   13.4 A2    1  5g4-         9.593400     1.000000
   14.4 A2    1  5g2-         4.308300     1.000000
   15.4 A2    1  5g4-         4.308300     1.000000
   16.4 A2    1  5g2-         1.749400     1.000000
   17.4 A2    1  5g4-         1.749400     1.000000
   18.4 A2    1  6h4-         8.570400     1.000000
   19.4 A2    1  6h2-         8.570400     1.000000
   20.4 A2    1  6h4-         3.729300     1.000000
   21.4 A2    1  6h2-         3.729300     1.000000
   22.4 A2    2  3d2-         1.848000     1.000000
   23.4 A2    2  3d2-         0.649000     1.000000
   24.4 A2    2  3d2-         0.228000     1.000000
   25.4 A2    2  3d2-         5.888000     1.000000
   26.4 A2    2  3d2-        22.804000     1.000000
   27.4 A2    2  4f2-         1.419000     1.000000
   28.4 A2    2  4f2-         0.485000     1.000000
   29.4 A2    2  4f2-         6.116000     1.000000
   30.4 A2    2  5g2-         1.011000     1.000000
   31.4 A2    2  5g4-         1.011000     1.000000
   32.4 A2    3  3d2-         2.837000     1.000000
   33.4 A2    3  3d2-         0.968000     1.000000
   34.4 A2    3  3d2-         0.335000     1.000000
   35.4 A2    3  3d2-         8.693000     1.000000
   36.4 A2    3  3d2-        31.167000     1.000000
   37.4 A2    3  4f2-         2.027000     1.000000
   38.4 A2    3  4f2-         0.685000     1.000000
   39.4 A2    3  4f2-         8.972000     1.000000
   40.4 A2    3  5g2-         1.427000     1.000000
   41.4 A2    3  5g4-         1.427000     1.000000

 NUCLEAR CHARGE:                   42
 NUMBER OF PRIMITIVE AOS:         523
 NUMBER OF SYMMETRY AOS:          420
 NUMBER OF CONTRACTIONS:          317   ( 124A1  +  76B1  +  76B2  +  41A2  )
 NUMBER OF CORE ORBITALS:          11   (   7A1  +   2B1  +   2B2  +   0A2  )
 NUMBER OF VALENCE ORBITALS:       14   (   7A1  +   3B1  +   3B2  +   1A2  )


 NUCLEAR REPULSION ENERGY  103.32256301

 One-electron integrals computed with SEWARD

 2nd-order Douglas-Kroll-Hess method activated. Optimal DKH parametrization is used.

 Computing Douglas-Kroll integrals

 AO integral compression algorithm  1   Integral accuracy      1.0D-14

     1103.364 MB (compressed) written to integral file ( 36.2%)

     Node minimum: 63.701 MB, node maximum: 181.142 MB


 NUMBER OF SORTED TWO-ELECTRON INTEGRALS:   26922696.     BUFFER LENGTH:  32768
 NUMBER OF SEGMENTS:   1  SEGMENT LENGTH:   26922696      RECORD LENGTH: 524288

 Memory used in sort:      27.48 MW

 SORT1 READ   380971155. AND WROTE    13608629. INTEGRALS IN     39 RECORDS. CPU TIME:    10.94 SEC, REAL TIME:    13.43 SEC
 SORT2 READ   166717634. AND WROTE   323943564. INTEGRALS IN   3564 RECORDS. CPU TIME:     0.79 SEC, REAL TIME:     2.14 SEC

 Node minimum:    26893222.  Node maximum:    27027222. integrals

 OPERATOR DM      FOR CENTER  0  COORDINATES:    0.000000    0.000000    0.000000

 EXTRA SYMMETRY OF AOS IN SYMMETRY 1:   1 1 1 1 1 1 1 1 1 1   1 1 1 1 1 1 1 1 1 1   2 1 2 1 2 1 2 1 2 1   2 1 2 1 2 1 2 1 2 1
                                        2 1 3 2 1 3 2 1 3 2   2 3 1 2 3 1 1 1 1 1   1 1 1 1 1 1 1 1 1 1   1 1 2 1 2 1 2 1 2 1
                                        2 1 2 1 2 1 2 1 3 2   1 1 1 1 1 1 1 1 1 1   1 1 1 1 1 1 2 1 2 1   2 1 2 1 2 1 2 1 2 1
                                        2 1 3 2
 EXTRA SYMMETRY OF AOS IN SYMMETRY 2:   1 1 1 1 1 1 1 1 1 1   1 1 1 1 1 1 1 2 1 2   1 2 1 2 1 2 1 2 1 2   1 2 3 1 2 3 1 1 1 1
                                        1 1 1 1 1 1 1 1 1 2   1 2 1 2 1 2 1 1 1 1   1 1 1 1 1 1 1 1 1 2   1 2 1 2 1 2
 EXTRA SYMMETRY OF AOS IN SYMMETRY 3:   1 1 1 1 1 1 1 1 1 1   1 1 1 1 1 1 1 2 1 2   1 2 1 2 1 2 1 2 1 2   1 2 3 1 2 3 1 1 1 1
                                        1 1 1 1 1 1 1 1 1 2   1 2 1 2 1 2 1 1 1 1   1 1 1 1 1 1 1 1 1 2   1 2 1 2 1 2
 EXTRA SYMMETRY OF AOS IN SYMMETRY 4:   1 1 1 1 1 1 1 1 1 1   1 1 2 1 2 1 2 2 1 2   1 1 1 1 1 1 1 1 1 1   2 1 1 1 1 1 1 1 1 1
                                        2

 Eigenvalues of metric

         1 0.818E-05 0.261E-04 0.299E-04 0.732E-04 0.139E-03 0.344E-03 0.511E-03 0.612E-03
         2 0.478E-03 0.630E-03 0.833E-03 0.113E-02 0.385E-02 0.809E-02 0.148E-01 0.262E-01
         3 0.478E-03 0.630E-03 0.833E-03 0.113E-02 0.385E-02 0.809E-02 0.148E-01 0.262E-01
         4 0.110E-01 0.155E-01 0.600E-01 0.822E-01 0.108E+00 0.124E+00 0.143E+00 0.205E+00


 **********************************************************************************************************************************
 DATASETS  * FILE   NREC   LENGTH (MB)   RECORD NAMES
              1      22        9.93       500      610      700      900      950      970     1000      129      960     1700   
                                          VAR    BASINP    GEOM    SYMINP    ZMAT    AOBASIS   BASIS     P2S    ABASIS    OPER   
                                         1101     1401     1411     1412     1650     1100     1400     1410     1200     1210   
                                          SR      EKINR    POTR     PVPR    MOLCAS      S      EKIN      POT      H0       H01  
                                         1080     1600   
                                         AOSYM     SMH  

              2       5        1.26       500      610      700     1000      520   
                                          VAR    BASINP    GEOM     BASIS   MCVARS    

 PROGRAMS   *        TOTAL       INT      FILE
 CPU TIMES  *        29.56     28.66      0.36
 REAL TIME  *        36.04 SEC
 DISK USED  *         3.16 GB      
 GA USED    *         0.00 MB       (max)       0.00 MB       (current)
 **********************************************************************************************************************************

1PROGRAM * RHF-SCF (CLOSED SHELL)       Authors: W. Meyer, H.-J. Werner


 NUMBER OF ELECTRONS:      21+   21-    SPACE SYMMETRY=1    SPIN SYMMETRY: Singlet 
 CONVERGENCE THRESHOLDS:    1.00E-06 (Density)    1.00E-10 (Energy)
 MAX. NUMBER OF ITERATIONS:       60
 INTERPOLATION TYPE:            DIIS
 INTERPOLATION STEPS:              2 (START)      1 (STEP)
 LEVEL SHIFTS:                  0.00 (CLOSED)  0.00 (OPEN) 

 Number of closed-shell orbitals:   21 (  12   4   4   1 )


 Orbital guess generated from atomic densities. Full valence occupancy:   14   5   5   1

 Molecular orbital dump at record        2100.2

 ITERATION    DDIFF          GRAD             ENERGY        2-EL.EN.            DIPOLE MOMENTS         DIIS   ORB.
    1      0.000D+00      0.000D+00     -1745.31839988   1549.732125    0.00000    0.00000   -4.48655    0    start
    2      0.000D+00      0.175D-01     -1745.21628299   1615.278905    0.00000    0.00000   -2.54088    1    diag
    3      0.856D-02      0.255D-01     -1745.52225142   1580.602100    0.00000    0.00000   -3.16551    2    diag
    4      0.398D-02      0.185D-02     -1745.52614786   1577.750990    0.00000    0.00000   -3.31260    3    diag
    5      0.108D-02      0.395D-03     -1745.52664869   1577.805206    0.00000    0.00000   -3.26917    4    diag
    6      0.396D-03      0.228D-03     -1745.52677281   1577.951792    0.00000    0.00000   -3.29194    5    diag
    7      0.232D-03      0.753D-04     -1745.52680207   1577.981548    0.00000    0.00000   -3.28666    6    diag
    8      0.129D-03      0.263D-04     -1745.52680560   1577.944160    0.00000    0.00000   -3.28760    7    diag
    9      0.482D-04      0.101D-04     -1745.52680640   1577.944589    0.00000    0.00000   -3.28738    8    diag
   10      0.153D-04      0.530D-05     -1745.52680677   1577.942467    0.00000    0.00000   -3.28680    9    orth
   11      0.141D-04      0.195D-05     -1745.52680681   1577.943146    0.00000    0.00000   -3.28663    9    diag
   12      0.549D-05      0.332D-06     -1745.52680681   1577.942883    0.00000    0.00000   -3.28664    9    diag
   13      0.816D-06      0.997D-07     -1745.52680681   1577.942983    0.00000    0.00000   -3.28665    9    diag
   14      0.215D-06      0.346D-07     -1745.52680681   1577.942910    0.00000    0.00000   -3.28666    0    orth

 Final occupancy:  12   4   4   1

 !RHF STATE 1.1 Energy              -1745.526806812821
 Nuclear energy                       103.32256301
 One-electron energy                -2637.82082483
 Two-electron energy                  788.97145501
 Virial quotient                       -0.95317263
 !RHF STATE 1.1 Dipole moment           0.00000000     0.00000000    -3.28665843
 Dipole moment /Debye                   0.00000000     0.00000000    -8.35330534

 ELECTRON ORBITALS
 =================


   Orb  Occ    Energy  Couls-En    Coefficients

                                   1 1s      1 1s      1 1s      1 1s      1 1s      1 1s      1 1s      1 1s      1 1s      1 1s   
                                   1 2pz     1 2pz     1 2pz     1 2pz     1 2pz     1 2pz     1 2pz     1 2pz     1 2pz     1 3d0  
                                   1 3d2+    1 3d0     1 3d2+    1 3d0     1 3d2+    1 3d0     1 3d2+    1 3d0     1 3d2+    1 3d0  
                                   1 3d2+    1 3d0     1 3d2+    1 4f0     1 4f2+    1 4f0     1 4f2+    1 4f0     1 4f2+    1 4f0  
                                   1 4f2+    1 5g0     1 5g4+    1 5g2+    1 5g0     1 5g4+    1 5g2+    1 5g0     1 5g4+    1 5g2+ 
                                   1 6h2+    1 6h4+    1 6h0     1 6h2+    1 6h4+    1 6h0     2 1s      2 1s      2 1s      2 1s   
                                   2 1s      2 1s      2 1s      2 1s      2 2pz     2 2pz     2 2pz     2 2pz     2 2pz     2 2pz  
                                   2 2pz     2 3d0     2 3d2+    2 3d0     2 3d2+    2 3d0     2 3d2+    2 3d0     2 3d2+    2 3d0  
                                   2 3d2+    2 4f0     2 4f2+    2 4f0     2 4f2+    2 4f0     2 4f2+    2 5g0     2 5g4+    2 5g2+ 
                                   3 1s      3 1s      3 1s      3 1s      3 1s      3 1s      3 1s      3 1s      3 2pz     3 2pz  
                                   3 2pz     3 2pz     3 2pz     3 2pz     3 2pz     3 3d0     3 3d2+    3 3d0     3 3d2+    3 3d0  
                                   3 3d2+    3 3d0     3 3d2+    3 3d0     3 3d2+    3 4f0     3 4f2+    3 4f0     3 4f2+    3 4f0  
                                   3 4f2+    3 5g0     3 5g4+    3 5g2+ 

   1.1   2  -332.5288 -760.5588  0.978385 -0.206627 -0.000608  0.000404 -0.000132  0.000082 -0.000038 -0.000422 -0.000010  0.000369
                                -0.000061 -0.000060 -0.000046  0.000056  0.000005  0.000014  0.000012  0.000028  0.000066  0.000007
                                 0.000000 -0.000002  0.000000  0.000005  0.000000  0.000000  0.000000 -0.000002  0.000000 -0.000005
                                 0.000000 -0.000003  0.000000  0.000000  0.000000  0.000000  0.000000  0.000000  0.000000  0.000000
                                 0.000000  0.000000  0.000000  0.000000  0.000000  0.000000  0.000000  0.000000  0.000000  0.000000
                                 0.000000  0.000000  0.000000  0.000000  0.000000  0.000000  0.000006  0.000028  0.000000 -0.000029
                                -0.000026  0.000003  0.000000  0.000000 -0.000003  0.000004 -0.000011  0.000006  0.000000  0.000000
                                 0.000000  0.000001  0.000000 -0.000002  0.000000 -0.000009  0.000000  0.000000  0.000000  0.000000
                                 0.000000  0.000001  0.000000 -0.000004  0.000000  0.000000  0.000000  0.000000  0.000000  0.000000
                                -0.000002 -0.000009  0.000002  0.000022  0.000008 -0.000001  0.000000  0.000000  0.000002 -0.000002
                                -0.000006 -0.000003  0.000000  0.000000  0.000000  0.000000  0.000000  0.000000  0.000000 -0.000001
                                 0.000000  0.000000  0.000000  0.000000  0.000000  0.000000  0.000000  0.000001  0.000000  0.000000
                                 0.000000  0.000000  0.000000  0.000000

   2.1   2   -41.7280 -149.3246  0.206449  0.978430  0.005296  0.000091 -0.000057  0.000037 -0.000017 -0.000160 -0.000033  0.000072
                                -0.001720 -0.000052  0.000059 -0.000071  0.000036 -0.000002 -0.000016 -0.000243  0.000012 -0.000172
                                 0.000000  0.000101  0.000000 -0.000081  0.000000  0.000015  0.000000  0.000016  0.000000  0.000004
                                 0.000000  0.000144  0.000000  0.000000  0.000000  0.000001  0.000000  0.000000  0.000000  0.000004
                                 0.000000 -0.000003  0.000000  0.000000 -0.000006  0.000000  0.000000  0.000001  0.000000  0.000000
                                 0.000000  0.000000  0.000000  0.000000  0.000000  0.000000 -0.000043 -0.000207  0.000003  0.000200
                                 0.000167 -0.000019 -0.000001 -0.000001  0.000055 -0.000058  0.000097 -0.000040 -0.000003  0.000000
                                 0.000000 -0.000004  0.000000  0.000009  0.000000  0.000063  0.000000  0.000001  0.000000  0.000000
                                 0.000000 -0.000010  0.000000  0.000039  0.000000  0.000001  0.000000 -0.000005  0.000000  0.000000
                                 0.000016  0.000073 -0.000015 -0.000168 -0.000060  0.000007  0.000000  0.000000 -0.000008  0.000010
                                 0.000035  0.000015  0.000001  0.000000  0.000000 -0.000001  0.000000  0.000006  0.000000  0.000007
                                 0.000000  0.000000  0.000000  0.000000  0.000000 -0.000002  0.000000 -0.000009  0.000000  0.000000
                                 0.000000  0.000004  0.000000  0.000000

   3.1   2   -35.8726 -141.9761  0.000379  0.001724 -0.000463  0.001283 -0.000507  0.000251 -0.000135 -0.001451 -0.000363  0.000942
                                 1.000188  0.007959 -0.000028 -0.000050 -0.000053 -0.000017  0.000007 -0.000180 -0.000159 -0.000488
                                 0.000000  0.000406  0.000000 -0.000189  0.000000  0.000155  0.000000 -0.000080  0.000000  0.000175
                                 0.000000  0.000282  0.000000 -0.000046  0.000000 -0.000003  0.000000 -0.000009  0.000000 -0.000007
                                 0.000000  0.000000  0.000000  0.000000  0.000001  0.000000  0.000000 -0.000001  0.000000  0.000000
                                 0.000000  0.000000  0.000001  0.000000  0.000000 -0.000002  0.000005  0.000024 -0.000010 -0.000003
                                 0.000025  0.000003  0.000000  0.000000 -0.000027  0.000027 -0.000014  0.000002  0.000002  0.000000
                                 0.000000 -0.000002  0.000000  0.000011  0.000000  0.000010  0.000000  0.000000  0.000000  0.000000
                                 0.000000  0.000003  0.000000 -0.000013  0.000000  0.000000  0.000000  0.000004  0.000000  0.000000
                                -0.000001 -0.000006  0.000006  0.000001 -0.000008 -0.000001  0.000000  0.000000 -0.000009  0.000006
                                 0.000009  0.000005  0.000001  0.000000  0.000000  0.000000  0.000000 -0.000005  0.000000 -0.000002
                                 0.000000  0.000000  0.000000  0.000000  0.000000  0.000001  0.000000  0.000002  0.000000  0.000000
                                 0.000000 -0.000001  0.000000  0.000000

   4.1   2   -15.5271  -47.7338 -0.000032 -0.000125 -0.001563 -0.006300  0.000608 -0.000301  0.000030  0.003021 -0.000029 -0.000456
                                -0.000016 -0.000578 -0.004494  0.001026 -0.000055 -0.000012  0.001361 -0.000004 -0.000041 -0.000150
                                 0.000000 -0.000258  0.000000 -0.000151  0.000000 -0.000019  0.000000 -0.000362  0.000000  0.000009
                                 0.000000 -0.000009  0.000000  0.000001  0.000000 -0.000005  0.000000  0.000013  0.000000 -0.000037
                                 0.000000 -0.000001  0.000000  0.000000  0.000002  0.000000  0.000000 -0.000004  0.000000  0.000000
                                 0.000000  0.000000  0.000000  0.000000  0.000000  0.000000 -0.000260 -0.001865  0.000100  0.002712
                                 0.004421 -0.000217 -0.000020 -0.000010  0.000083  0.000208  0.001641 -0.003003  0.000043 -0.000001
                                 0.000002 -0.000034  0.000000  0.000136  0.000000  0.001565  0.000000  0.000007  0.000000  0.000000
                                 0.000000  0.000007  0.000000 -0.000001  0.000000 -0.000008  0.000000  0.000027  0.000000  0.000000
                                 1.001793  0.008885 -0.000724 -0.008786 -0.001405  0.000709  0.000022  0.000056 -0.003804  0.000754
                                 0.002968  0.001013 -0.000419 -0.000035 -0.000010  0.000248  0.000000  0.000337  0.000000 -0.000173
                                 0.000000 -0.000128  0.000000 -0.000017  0.000000 -0.000119  0.000000 -0.000057  0.000000 -0.000014
                                 0.000000  0.000070  0.000000  0.000000

   5.1   2   -11.2048  -40.4869  0.000024  0.000059 -0.000616 -0.006493  0.003224 -0.001103  0.000309  0.007037  0.000089 -0.000659
                                 0.000145  0.000538 -0.008856  0.007063 -0.001298  0.000165  0.002534 -0.000015 -0.000286  0.000626
                                 0.000000  0.000876  0.000000  0.000591  0.000000  0.000180  0.000000 -0.001025  0.000000  0.000036
                                 0.000000 -0.000110  0.000000 -0.000001  0.000000  0.000005  0.000000 -0.000009  0.000000  0.000088
                                 0.000000 -0.000004  0.000000  0.000000  0.000012  0.000000  0.000000 -0.000019  0.000000  0.000000
                                 0.000000  0.000000  0.000001  0.000000  0.000000 -0.000002  0.998748 -0.002211  0.003124  0.001295
                                 0.000649 -0.000526 -0.000170  0.000035 -0.000412  0.000660  0.002015 -0.001315 -0.000177 -0.000023
                                -0.000003  0.000338  0.000000  0.001062  0.000000 -0.001213  0.000000 -0.000127  0.000000 -0.000024
                                 0.000000  0.000182  0.000000  0.000456  0.000000  0.000043  0.000000  0.000138  0.000000  0.000000
                                -0.000739  0.000310 -0.000017 -0.000416  0.001056 -0.000086 -0.000006 -0.000005 -0.001229  0.000285
                                 0.000870  0.000343  0.000020 -0.000006  0.000001  0.000068  0.000000  0.000048  0.000000 -0.000341
                                 0.000000 -0.000008  0.000000  0.000003  0.000000 -0.000140  0.000000  0.000028  0.000000  0.000009
                                 0.000000  0.000126  0.000000  0.000000

   6.1   2    -5.2269  -48.6974 -0.000723 -0.005263  1.000959  0.005570 -0.000708  0.002890 -0.000511 -0.007650  0.000136  0.000163
                                -0.000024 -0.009692 -0.003274  0.001357 -0.001563  0.000046  0.000882  0.000220 -0.000145  0.002522
                                 0.000000 -0.001253  0.000000  0.000397  0.000000  0.000344  0.000000 -0.000386  0.000000  0.000090
                                 0.000000 -0.000394  0.000000  0.000001  0.000000 -0.000005  0.000000 -0.000027  0.000000 -0.000048
                                 0.000000 -0.000008  0.000000  0.000000 -0.000016  0.000000  0.000000 -0.000015  0.000000  0.000000
                                 0.000000  0.000000 -0.000001  0.000000  0.000000  0.000004  0.000300  0.002690 -0.000321 -0.001965
                                -0.000708  0.000180  0.000010  0.000009 -0.000248 -0.000024 -0.001481  0.000037 -0.000034 -0.000001
                                -0.000002  0.000022  0.000000  0.000221  0.000000 -0.000238  0.000000  0.000003  0.000000  0.000001
                                 0.000000  0.000015  0.000000 -0.000629  0.000000 -0.000004  0.000000  0.000047  0.000000  0.000000
                                 0.000111  0.000482 -0.000048  0.000772  0.000153  0.000046  0.000003  0.000002  0.000243 -0.000194
                                -0.000438 -0.000268 -0.000019  0.000000 -0.000001  0.000007  0.000000 -0.000024  0.000000  0.000048
                                 0.000000 -0.000002  0.000000  0.000000  0.000000  0.000012  0.000000  0.000010  0.000000 -0.000001
                                 0.000000 -0.000007  0.000000  0.000000

   7.1   2    -3.4367  -44.5530  0.000089  0.000300  0.009038 -0.007871 -0.001025 -0.002155  0.000646  0.004951  0.000417 -0.001740
                                -0.007633  0.999447  0.009695 -0.007401  0.003659 -0.000613 -0.002773  0.000033 -0.000524 -0.005880
                                 0.000000 -0.000237  0.000000  0.001081  0.000000 -0.000002  0.000000 -0.000275  0.000000 -0.000155
                                 0.000000 -0.000260  0.000000 -0.000015  0.000000 -0.000145  0.000000  0.000052  0.000000 -0.000090
                                 0.000000  0.000009  0.000000  0.000000 -0.000031  0.000000  0.000000  0.000067  0.000000  0.000000
                                 0.000000  0.000000  0.000002  0.000000  0.000000  0.000021  0.000632  0.010477 -0.001959 -0.001033
                                -0.001696  0.000471  0.000019  0.000023 -0.004250 -0.000298  0.000205  0.001298 -0.000057 -0.000007
                                -0.000004 -0.000010  0.000000  0.002012  0.000000  0.001118  0.000000  0.000044  0.000000 -0.000001
                                 0.000000 -0.000077  0.000000 -0.000625  0.000000 -0.000007  0.000000  0.000285  0.000000  0.000000
                                -0.000215 -0.001155  0.000379 -0.000748 -0.000736 -0.000084 -0.000009 -0.000004 -0.000284  0.000512
                                 0.001058  0.000137  0.000040  0.000002  0.000002 -0.000002  0.000000 -0.000328  0.000000 -0.000066
                                 0.000000  0.000001  0.000000  0.000000  0.000000  0.000055  0.000000  0.000011  0.000000 -0.000004
                                 0.000000 -0.000011  0.000000  0.000000

   8.1   2    -1.1538  -15.7286 -0.000081 -0.000280 -0.003901  0.020580 -0.001356  0.000932 -0.000389 -0.008620 -0.000144  0.000075
                                -0.000161 -0.007339  0.017886 -0.004343  0.001421 -0.000254 -0.004805 -0.000017  0.000077  0.011612
                                 0.000000  0.000241  0.000000 -0.000365  0.000000 -0.000092  0.000000  0.002313  0.000000  0.000026
                                 0.000000 -0.000015  0.000000  0.000014  0.000000 -0.000028  0.000000  0.000209  0.000000 -0.000254
                                 0.000000 -0.000016  0.000000  0.000000  0.000057  0.000000  0.000000 -0.000120  0.000000  0.000000
                                 0.000000  0.000000  0.000003  0.000000  0.000000 -0.000010 -0.006648  0.591851 -0.009638 -0.122416
                                -0.138718  0.001483  0.000020  0.000032  0.348112 -0.005483 -0.092821 -0.080734  0.000581  0.000243
                                 0.000078  0.008576  0.000000  0.024651  0.000000  0.007552  0.000000  0.000830  0.000000  0.000102
                                 0.000000  0.003453  0.000000  0.005141  0.000000  0.000118  0.000000  0.001464  0.000000  0.000000
                                -0.000964  0.785022 -0.008363 -0.087334 -0.087720  0.002002  0.000100  0.000074 -0.279394 -0.002191
                                 0.033222  0.050217 -0.000918 -0.000181 -0.000078  0.004336  0.000000  0.017192  0.000000  0.015155
                                 0.000000  0.000458  0.000000  0.000066  0.000000 -0.001853  0.000000 -0.004239  0.000000 -0.000003
                                 0.000000  0.001077  0.000000  0.000000

   9.1   2    -0.6278  -21.6232 -0.000904 -0.003484 -0.054346  0.053855  0.022290 -0.011045  0.001422  0.024094 -0.000677 -0.012148
                                -0.002460 -0.052736  0.023607  0.039707 -0.005820 -0.000049 -0.007378 -0.000008  0.001132  0.542865
                                 0.000000  0.023100  0.000000  0.007013  0.000000  0.000073  0.000000 -0.000054  0.000000 -0.000254
                                 0.000000  0.000743  0.000000 -0.000047  0.000000 -0.000131  0.000000 -0.000117  0.000000  0.000951
                                 0.000000  0.000047  0.000000  0.000000 -0.000219  0.000000  0.000000  0.000907  0.000000  0.000000
                                 0.000000  0.000000 -0.000014  0.000000  0.000000  0.000050  0.003537  0.584762 -0.018998 -0.014812
                                -0.043291  0.002503  0.000145  0.000102 -0.331616  0.001682 -0.005187  0.032446 -0.000595 -0.000115
                                -0.000068  0.000286  0.000000  0.011316  0.000000  0.002930  0.000000  0.000345  0.000000  0.000001
                                 0.000000 -0.000525  0.000000 -0.005642  0.000000 -0.000052  0.000000  0.000927  0.000000  0.000000
                                -0.001929 -0.374747  0.000303  0.009977 -0.015493 -0.000357 -0.000031 -0.000017 -0.181889  0.004478
                                 0.003849 -0.001459  0.000101 -0.000006 -0.000007  0.000441  0.000000  0.000812  0.000000  0.001404
                                 0.000000 -0.000012  0.000000  0.000001  0.000000  0.000388  0.000000  0.001007  0.000000 -0.000011
                                 0.000000 -0.000347  0.000000  0.000000

  10.1   2    -0.5519  -34.3843  0.000000  0.000000  0.000000  0.000000  0.000000  0.000000  0.000000  0.000000  0.000000  0.000000
                                 0.000000  0.000000  0.000000  0.000000  0.000000  0.000000  0.000000  0.000000  0.000000  0.000000
                                 1.001238  0.000000  0.024447  0.000000  0.010183  0.000000  0.001307  0.000000 -0.004253  0.000000
                                 0.000007  0.000000 -0.000334  0.000000 -0.000118  0.000000 -0.000596  0.000000 -0.000814  0.000000
                                -0.005201  0.000000  0.000000 -0.000004  0.000000  0.000000 -0.000055  0.000000  0.000000  0.000264
                                 0.000000  0.000000  0.000000 -0.000002  0.000000  0.000000  0.000000  0.000000  0.000000  0.000000
                                 0.000000  0.000000  0.000000  0.000000  0.000000  0.000000  0.000000  0.000000  0.000000  0.000000
                                 0.000000  0.000000 -0.000006  0.000000  0.002021  0.000000 -0.000601  0.000000  0.000067  0.000000
                                -0.000003  0.000000 -0.000286  0.000000 -0.000371  0.000000  0.000007  0.000000  0.000000  0.000339
                                 0.000000  0.000000  0.000000  0.000000  0.000000  0.000000  0.000000  0.000000  0.000000  0.000000
                                 0.000000  0.000000  0.000000  0.000000  0.000000  0.000000  0.000065  0.000000 -0.000141  0.000000
                                 0.000587  0.000000 -0.000010  0.000000  0.000002  0.000000  0.000020  0.000000  0.000033  0.000000
                                -0.000003  0.000000  0.000000 -0.000084

  11.1   2    -0.5280  -21.1231  0.000800  0.003110  0.040907  0.113368 -0.057620  0.016224 -0.002835 -0.119212  0.000461  0.012577
                                 0.000620  0.017937  0.152722 -0.082829  0.008580 -0.000443 -0.042837  0.000091  0.000317  0.631468
                                 0.000000  0.023728  0.000000  0.009656  0.000000  0.001212  0.000000  0.014765  0.000000 -0.000072
                                 0.000000 -0.000079  0.000000 -0.000126  0.000000 -0.000353  0.000000 -0.001036  0.000000 -0.002476
                                 0.000000  0.000014  0.000000  0.000000 -0.000147  0.000000  0.000000  0.000499  0.000000  0.000000
                                 0.000000  0.000000 -0.000005  0.000000  0.000000  0.000016  0.005896 -0.274658 -0.009024  0.073948
                                 0.034920  0.002357  0.000162  0.000112 -0.244735  0.008149  0.102539  0.159874  0.000280 -0.000023
                                -0.000016 -0.003118  0.000000  0.003556  0.000000  0.008197  0.000000 -0.000200  0.000000 -0.000034
                                 0.000000 -0.001726  0.000000 -0.000447  0.000000 -0.000072  0.000000  0.000271  0.000000  0.000000
                                -0.004441  0.368336  0.006664  0.025623 -0.004825 -0.002741 -0.000212 -0.000126  0.567891 -0.001600
                                -0.005378  0.015345  0.000794  0.000082  0.000077 -0.002867  0.000000 -0.015729  0.000000 -0.020732
                                 0.000000 -0.000217  0.000000 -0.000037  0.000000  0.001248  0.000000  0.003449  0.000000 -0.000043
                                 0.000000 -0.001251  0.000000  0.000000

  12.1   2    -0.4456  -20.2343 -0.001103 -0.004336 -0.064262  0.191628  0.064206 -0.021006  0.003859  0.069724 -0.000596 -0.017491
                                -0.002338 -0.060476 -0.021655  0.089128 -0.012121  0.000573  0.016876 -0.000136 -0.000130 -0.525559
                                 0.000000 -0.015899  0.000000 -0.009350  0.000000 -0.002626  0.000000 -0.006911  0.000000 -0.000393
                                 0.000000  0.001603  0.000000  0.000144  0.000000  0.000540  0.000000  0.001320  0.000000  0.006458
                                 0.000000  0.000045  0.000000  0.000000 -0.000050  0.000000  0.000000  0.000290  0.000000  0.000000
                                 0.000000  0.000000 -0.000010  0.000000  0.000000  0.000039  0.001072  0.177337 -0.016459  0.086458
                                 0.242153  0.000365  0.000077 -0.000001 -0.557708  0.020707  0.051084  0.118480  0.000531 -0.000052
                                -0.000038 -0.004730  0.000000 -0.008433  0.000000  0.011304  0.000000 -0.000425  0.000000 -0.000046
                                 0.000000 -0.001069  0.000000 -0.006920  0.000000 -0.000090  0.000000 -0.001386  0.000000  0.000000
                                -0.003998  0.071560  0.003521  0.053143 -0.028990 -0.002142 -0.000156 -0.000101  0.488644 -0.003318
                                -0.021419  0.031116  0.000599  0.000064  0.000063 -0.002807  0.000000 -0.013891  0.000000 -0.021190
                                 0.000000 -0.000262  0.000000 -0.000039  0.000000  0.001392  0.000000  0.005616  0.000000 -0.000036
                                 0.000000 -0.001889  0.000000  0.000000

                                   1 2px     1 2px     1 2px     1 2px     1 2px     1 2px     1 2px     1 2px     1 2px     1 3d1+ 
                                   1 3d1+    1 3d1+    1 3d1+    1 3d1+    1 3d1+    1 3d1+    1 4f1+    1 4f3+    1 4f1+    1 4f3+ 
                                   1 4f1+    1 4f3+    1 4f1+    1 4f3+    1 5g1+    1 5g3+    1 5g1+    1 5g3+    1 5g1+    1 5g3+ 
                                   1 6h1+    1 6h3+    1 6h5+    1 6h1+    1 6h3+    1 6h5+    2 2px     2 2px     2 2px     2 2px  
                                   2 2px     2 2px     2 2px     2 3d1+    2 3d1+    2 3d1+    2 3d1+    2 3d1+    2 4f1+    2 4f3+ 
                                   2 4f1+    2 4f3+    2 4f1+    2 4f3+    2 5g1+    2 5g3+    3 2px     3 2px     3 2px     3 2px  
                                   3 2px     3 2px     3 2px     3 3d1+    3 3d1+    3 3d1+    3 3d1+    3 3d1+    3 4f1+    3 4f3+ 
                                   3 4f1+    3 4f3+    3 4f1+    3 4f3+    3 5g1+    3 5g3+ 

   1.2   2   -35.8750 -141.9720  1.000047  0.007908 -0.000106  0.000105 -0.000018  0.000007  0.000029 -0.000038 -0.000109 -0.000405
                                 0.000360 -0.000154  0.000130 -0.000073  0.000144  0.000241 -0.000019  0.000000  0.000022  0.000000
                                 0.000003  0.000000  0.000001  0.000000  0.000000  0.000000  0.000000  0.000000 -0.000001  0.000000
                                 0.000001  0.000000  0.000000 -0.000001  0.000000  0.000000 -0.000003  0.000002  0.000011  0.000010
                                 0.000000  0.000000  0.000000  0.000000  0.000003  0.000015  0.000000  0.000000  0.000000  0.000000
                                 0.000005  0.000000  0.000000  0.000000 -0.000001  0.000000 -0.000011  0.000007 -0.000009 -0.000009
                                 0.000001  0.000000  0.000000  0.000000  0.000001  0.000011  0.000000  0.000000  0.000001  0.000000
                                -0.000003  0.000000  0.000000  0.000000  0.000000  0.000000

   2.2   2    -3.4326  -44.4457 -0.007640  1.000290  0.006356 -0.000526  0.004162 -0.000731 -0.001790 -0.000001 -0.000388 -0.004746
                                 0.000493  0.001485  0.000245 -0.000849 -0.000088 -0.000393  0.000042  0.000000  0.000025  0.000000
                                 0.000272  0.000000  0.000070  0.000000  0.000003  0.000000 -0.000015  0.000000  0.000014  0.000000
                                 0.000003  0.000000  0.000000  0.000013  0.000000  0.000000  0.000336  0.000105  0.000920  0.000290
                                 0.000021  0.000001  0.000001 -0.000011 -0.000317  0.000683 -0.000011  0.000000  0.000015  0.000000
                                 0.000531  0.000000  0.000003  0.000000 -0.000116  0.000000 -0.000424  0.000269 -0.000583 -0.000501
                                 0.000030  0.000000  0.000001 -0.000005 -0.000005  0.000581  0.000002  0.000000  0.000030  0.000000
                                -0.000082  0.000000 -0.000003  0.000000 -0.000014  0.000000

   3.2   2    -0.5565  -33.5485  0.000223  0.003360  0.010130 -0.016441 -0.000080  0.000275 -0.002084  0.000017 -0.000494  0.979047
                                 0.028699  0.012510  0.002009 -0.001142  0.000079 -0.000635 -0.000167  0.000000 -0.000570  0.000000
                                -0.001249  0.000000 -0.004669  0.000000  0.000007  0.000000 -0.000149  0.000000  0.000558  0.000000
                                -0.000005  0.000000  0.000000  0.000012  0.000000  0.000000  0.118980  0.001326 -0.001457 -0.019042
                                 0.000436  0.000059  0.000035  0.000313 -0.004632  0.003824 -0.000140  0.000009  0.001109  0.000000
                                 0.004176  0.000000  0.000029  0.000000 -0.000787  0.000000  0.077465  0.002152 -0.003809 -0.001912
                                 0.000382  0.000021  0.000025 -0.000575 -0.004359 -0.001406 -0.000086 -0.000006  0.000534  0.000000
                                 0.001238  0.000000 -0.000017  0.000000 -0.000451  0.000000

   4.2   2    -0.4135  -14.0544 -0.000198 -0.015911 -0.036283  0.047259 -0.007872  0.000851  0.022447 -0.000067 -0.000899 -0.199633
                                -0.002892 -0.001668 -0.000478 -0.004078 -0.000125  0.000393  0.000045  0.000000  0.000292  0.000000
                                 0.000450  0.000000  0.003118  0.000000  0.000021  0.000000 -0.000029  0.000000  0.000161  0.000000
                                -0.000005  0.000000  0.000000  0.000020  0.000000  0.000000  0.543491  0.000647 -0.019441  0.006149
                                 0.001100  0.000192  0.000111  0.007469  0.025729  0.009023  0.000539  0.000089  0.003811  0.000000
                                 0.008625  0.000000  0.000082  0.000000  0.001725  0.000000  0.629542 -0.001119 -0.006128  0.010818
                                 0.000930  0.000131  0.000095 -0.004088 -0.021625 -0.025307 -0.000422 -0.000051  0.002041  0.000000
                                 0.005487  0.000000 -0.000028  0.000000 -0.001568  0.000000

[...]
                                   2 4f1-    2 4f3-    2 4f1-    2 4f3-    2 5g1-    2 5g3-    3 2py     3 2py     3 2py     3 2py  
                                   3 2py     3 2py     3 2py     3 3d1-    3 3d1-    3 3d1-    3 3d1-    3 3d1-    3 4f1-    3 4f3- 
                                   3 4f1-    3 4f3-    3 4f1-    3 4f3-    3 5g1-    3 5g3- 

   1.3   2   -35.8750 -141.9720  1.000047  0.007908 -0.000106  0.000105 -0.000018  0.000007  0.000029 -0.000038 -0.000109 -0.000405
                                 0.000360 -0.000154  0.000130 -0.000073  0.000144  0.000241 -0.000019  0.000000  0.000022  0.000000
                                 0.000003  0.000000  0.000001  0.000000  0.000000  0.000000  0.000000  0.000000 -0.000001  0.000000
                                 0.000001  0.000000  0.000000 -0.000001  0.000000  0.000000 -0.000003  0.000002  0.000011  0.000010
                                 0.000000  0.000000  0.000000  0.000000  0.000003  0.000015  0.000000  0.000000  0.000000  0.000000
                                 0.000005  0.000000  0.000000  0.000000 -0.000001  0.000000 -0.000011  0.000007 -0.000009 -0.000009
                                 0.000001  0.000000  0.000000  0.000000  0.000001  0.000011  0.000000  0.000000  0.000001  0.000000
                                -0.000003  0.000000  0.000000  0.000000  0.000000  0.000000

   2.3   2    -3.4326  -44.4457 -0.007640  1.000290  0.006356 -0.000526  0.004162 -0.000731 -0.001790 -0.000001 -0.000388 -0.004746
                                 0.000493  0.001485  0.000245 -0.000849 -0.000088 -0.000393  0.000042  0.000000  0.000025  0.000000
                                 0.000272  0.000000  0.000070  0.000000  0.000003  0.000000 -0.000015  0.000000  0.000014  0.000000
                                 0.000003  0.000000  0.000000  0.000013  0.000000  0.000000  0.000336  0.000105  0.000920  0.000290
                                 0.000021  0.000001  0.000001 -0.000011 -0.000317  0.000683 -0.000011  0.000000  0.000015  0.000000
                                 0.000531  0.000000  0.000003  0.000000 -0.000116  0.000000 -0.000424  0.000269 -0.000583 -0.000501
                                 0.000030  0.000000  0.000001 -0.000005 -0.000005  0.000581  0.000002  0.000000  0.000030  0.000000
                                -0.000082  0.000000 -0.000003  0.000000 -0.000014  0.000000

   3.3   2    -0.5565  -33.5485  0.000223  0.003360  0.010130 -0.016441 -0.000080  0.000275 -0.002084  0.000017 -0.000494  0.979047
                                 0.028699  0.012510  0.002009 -0.001142  0.000079 -0.000635 -0.000167  0.000000 -0.000570  0.000000
                                -0.001249  0.000000 -0.004669  0.000000  0.000007  0.000000 -0.000149  0.000000  0.000558  0.000000
                                -0.000005  0.000000  0.000000  0.000012  0.000000  0.000000  0.118980  0.001326 -0.001457 -0.019042
                                 0.000436  0.000059  0.000035  0.000313 -0.004632  0.003824 -0.000140  0.000009  0.001109  0.000000
                                 0.004176  0.000000  0.000029  0.000000 -0.000787  0.000000  0.077465  0.002152 -0.003809 -0.001912
                                 0.000382  0.000021  0.000025 -0.000575 -0.004359 -0.001406 -0.000086 -0.000006  0.000534  0.000000
                                 0.001238  0.000000 -0.000017  0.000000 -0.000451  0.000000

   4.3   2    -0.4135  -14.0544 -0.000198 -0.015911 -0.036283  0.047259 -0.007872  0.000851  0.022447 -0.000067 -0.000899 -0.199633
                                -0.002892 -0.001668 -0.000478 -0.004078 -0.000125  0.000393  0.000045  0.000000  0.000292  0.000000
                                 0.000450  0.000000  0.003118  0.000000  0.000021  0.000000 -0.000029  0.000000  0.000161  0.000000
                                -0.000005  0.000000  0.000000  0.000020  0.000000  0.000000  0.543491  0.000647 -0.019441  0.006149
                                 0.001100  0.000192  0.000111  0.007469  0.025729  0.009023  0.000539  0.000089  0.003811  0.000000
                                 0.008625  0.000000  0.000082  0.000000  0.001725  0.000000  0.629542 -0.001119 -0.006128  0.010818
                                 0.000930  0.000131  0.000095 -0.004088 -0.021625 -0.025307 -0.000422 -0.000051  0.002041  0.000000
                                 0.005487  0.000000 -0.000028  0.000000 -0.001568  0.000000

                                   1 3d2-    1 3d2-    1 3d2-    1 3d2-    1 3d2-    1 3d2-    1 3d2-    1 4f2-    1 4f2-    1 4f2- 
                                   1 4f2-    1 5g2-    1 5g4-    1 5g2-    1 5g4-    1 5g2-    1 5g4-    1 6h4-    1 6h2-    1 6h4- 
                                   1 6h2-    2 3d2-    2 3d2-    2 3d2-    2 3d2-    2 3d2-    2 4f2-    2 4f2-    2 4f2-    2 5g2- 
                                   2 5g4-    3 3d2-    3 3d2-    3 3d2-    3 3d2-    3 3d2-    3 4f2-    3 4f2-    3 4f2-    3 5g2- 
                                   3 5g4- 

   1.4   2    -0.5519  -34.3843  1.001238  0.024447  0.010183  0.001307 -0.004253  0.000007 -0.000334 -0.000118 -0.000596 -0.000814
                                -0.005201 -0.000004  0.000000 -0.000055  0.000000  0.000264  0.000000  0.000000  0.000000  0.000000
                                -0.000002 -0.000006  0.002021 -0.000601  0.000067 -0.000003 -0.000286 -0.000371  0.000007  0.000339
                                 0.000000  0.000065 -0.000141  0.000587 -0.000010  0.000002  0.000020  0.000033 -0.000003 -0.000084
                                 0.000000

 HOMO      4.2    -0.413462 =     -11.2509eV
 LUMO     13.1    -0.019615 =      -0.5337eV
 LUMO-HOMO         0.393847 =      10.7171eV


 **********************************************************************************************************************************
 DATASETS  * FILE   NREC   LENGTH (MB)   RECORD NAMES
              1      22        9.93       500      610      700      900      950      970     1000      129      960     1700   
                                          VAR    BASINP    GEOM    SYMINP    ZMAT    AOBASIS   BASIS     P2S    ABASIS    OPER   
                                         1101     1401     1411     1412     1650     1100     1400     1410     1200     1210   
                                          SR      EKINR    POTR     PVPR    MOLCAS      S      EKIN      POT      H0       H01  
                                         1080     1600   
                                         AOSYM     SMH  

              2       6        1.94       500      610      700     1000      520     2100   
                                          VAR    BASINP    GEOM     BASIS   MCVARS     RHF  

 PROGRAMS   *        TOTAL       RHF       INT      FILE
 CPU TIMES  *        31.63      2.07     28.66      0.36
 REAL TIME  *        39.12 SEC
 DISK USED  *         3.33 GB      
 SF USED    *         0.12 MB      
 GA USED    *         0.00 MB       (max)       0.00 MB       (current)
 **********************************************************************************************************************************


1PROGRAM * CCSD (Closed-shell coupled cluster)     Authors: C. Hampel, H.-J. Werner, 1991, M. Deegan, P.J. Knowles, 1992


 Convergence thresholds:  THRVAR = 1.00D-13  THRDEN = 1.00D-09

 CCSD(T)     terms to be evaluated (factor= 1.000)


 Number of core orbitals:           5 (   3   1   1   0 )
 Number of closed-shell orbitals:  16 (   9   3   3   1 )
 Number of external orbitals:     296 ( 112  72  72  40 )

 Molecular orbitals read from record     2100.2  Type=RHF/CANONICAL (state 1.1)

 Number of N-1 electron functions:              16
 Number of N-2 electron functions:             136
 Number of singly external CSFs:              1480
 Number of doubly external CSFs:           2889152
 Total number of CSFs:                     2890633

 Length of J-op  integral file:               0.00 MB
 Length of K-op  integral file:               1.98 MB
 Length of 3-ext integral record:             0.00 MB

 Memory could be reduced to 130.38 Mwords without degradation in triples

 Integral transformation finished. Total CPU:   6.08 sec, npass=  1  Memory used:  17.89 MW

 Reference energy:                  -1745.52680681

 MP2 singlet pair energy:              -0.87337091
 MP2 triplet pair energy:              -0.69131764
 MP2 correlation energy:               -1.56468855
 MP2 total energy:                  -1747.09149537

 SCS-MP2 correlation energy:           -1.47819829   (PS=  1.200000  PT=  0.333333)
 SCS-MP2 total energy:              -1747.00500510

 ITER.      SQ.NORM     CORR.ENERGY   TOTAL ENERGY   ENERGY CHANGE        DEN1      VAR(S)    VAR(P)  DIIS     TIME
   1      1.20320722    -1.45471395 -1746.98152076     0.10997461     0.20586295  0.12D-01  0.19D-01  0  0     8.20
   2      1.22643511    -1.42141251 -1746.94821932     0.03330144    -0.07225835  0.13D-02  0.27D-02  1  1    10.48
   3      1.22748104    -1.42290868 -1746.94971549    -0.00149617     0.01437538  0.42D-03  0.15D-03  2  2    12.85
   4      1.23364200    -1.42249541 -1746.94930223     0.00041327    -0.00257786  0.16D-03  0.50D-04  3  3    15.21
   5      1.24173142    -1.42259693 -1746.94940374    -0.00010151    -0.00250492  0.75D-04  0.98D-05  4  4    17.57
   6      1.24771744    -1.42279422 -1746.94960104    -0.00019730    -0.00049081  0.34D-04  0.35D-05  5  5    19.97
   7      1.25114340    -1.42281979 -1746.94962661    -0.00002557    -0.00017421  0.21D-04  0.22D-05  5  3    22.41
   8      1.25530303    -1.42287914 -1746.94968596    -0.00005935    -0.00010334  0.87D-05  0.12D-05  5  1    24.86
   9      1.25977342    -1.42283101 -1746.94963782     0.00004814    -0.00015215  0.24D-05  0.45D-06  5  2    27.26
  10      1.26143610    -1.42281196 -1746.94961877     0.00001905    -0.00009040  0.83D-06  0.16D-06  5  4    29.66
  11      1.26212649    -1.42278691 -1746.94959372     0.00002505     0.00000384  0.26D-06  0.77D-07  5  5    32.05
  12      1.26234118    -1.42278987 -1746.94959669    -0.00000297     0.00000364  0.66D-07  0.24D-07  5  2    34.47
  13      1.26243170    -1.42278455 -1746.94959136     0.00000533     0.00000137  0.12D-07  0.41D-08  5  3    36.88
  14      1.26244558    -1.42278525 -1746.94959207    -0.00000070     0.00000783  0.45D-08  0.12D-08  5  1    39.32
  15      1.26244051    -1.42278421 -1746.94959103     0.00000104    -0.00000360  0.14D-08  0.47D-09  5  4    41.72
  16      1.26243074    -1.42278437 -1746.94959118    -0.00000016     0.00000238  0.35D-09  0.11D-09  5  5    44.11
  17      1.26242023    -1.42278477 -1746.94959159    -0.00000040     0.00000041  0.85D-10  0.26D-10  5  2    46.46
  18      1.26241472    -1.42278475 -1746.94959157     0.00000002     0.00000038  0.42D-10  0.82D-11  5  3    48.84
  19      1.26241012    -1.42278501 -1746.94959182    -0.00000026     0.00000061  0.17D-10  0.24D-11  5  4    51.23
  20      1.26240732    -1.42278501 -1746.94959182     0.00000000    -0.00000008  0.93D-11  0.11D-11  5  1    53.62
  21      1.26240450    -1.42278510 -1746.94959192    -0.00000009     0.00000022  0.43D-11  0.57D-12  5  2    56.01
  22      1.26240206    -1.42278512 -1746.94959194    -0.00000002    -0.00000006  0.20D-11  0.25D-12  5  5    58.42
  23      1.26240094    -1.42278515 -1746.94959197    -0.00000003     0.00000005  0.10D-11  0.17D-12  5  3    60.83
  24      1.26239971    -1.42278520 -1746.94959201    -0.00000004     0.00000005  0.27D-12  0.91D-13  5  4    63.24
  25      1.26239918    -1.42278520 -1746.94959201     0.00000000    -0.00000001  0.96D-13  0.36D-13  5  1    65.62
  26      1.26239892    -1.42278522 -1746.94959203    -0.00000002     0.00000003  0.37D-13  0.11D-13  5  2    68.04
  27      1.26239886    -1.42278521 -1746.94959202     0.00000000    -0.00000001  0.21D-13  0.34D-14  5  5    70.44
  28      1.26239879    -1.42278521 -1746.94959203     0.00000000     0.00000001  0.12D-13  0.20D-14  5  3    72.82
  29      1.26239873    -1.42278521 -1746.94959203     0.00000000     0.00000000  0.53D-14  0.68D-15  5  4    75.20
  30      1.26239867    -1.42278522 -1746.94959203     0.00000000     0.00000000  0.25D-14  0.22D-15  5  1    77.58
  31      1.26239862    -1.42278522 -1746.94959203     0.00000000     0.00000000  0.12D-14  0.14D-15  5  2    79.96
  32      1.26239858    -1.42278522 -1746.94959203     0.00000000     0.00000000  0.43D-15  0.53D-16  5  5    82.34
  33      1.26239854    -1.42278522 -1746.94959203     0.00000000     0.00000000  0.76D-16  0.20D-16  5  2    84.72
  34      1.26239853    -1.42278522 -1746.94959203     0.00000000     0.00000000  0.17D-16  0.41D-17  5  1    87.12
  35      1.26239853    -1.42278522 -1746.94959203     0.00000000     0.00000000  0.49D-17  0.12D-17  5  3    89.50

 Norm of t1 vector:      0.19533426      S-energy:     0.00000004      T1 diagnostic:  0.02441678
                                                                       D1 diagnostic:  0.11416987

 Singles amplitudes (print threshold =  0.500E-01):

         I         SYM. A    A   T(IA)

         9         1         1      0.08288428
         9         1         3      0.05062625


 Total CPU time for triples:     74.29 sec


 RESULTS
 =======

  Reference energy                  -1745.526806812820

  Correlated core orbitals:             4.1       5.1       6.1       7.1       2.2       2.3
  Orbital energies:                   -15.5271  -11.2048   -5.2269   -3.4367   -3.4326   -3.4326
 
  CCSD core-core energy                -0.198629864590
  CCSD core-valence energy             -0.388998897933
  CCSD valence correlation energy      -0.835156457474
 
  CCSD singlet pair energy             -0.864874280042
  CCSD triplet pair energy             -0.557910983327
  CCSD correlation energy              -1.422785219997

  Triples (T) contribution             -0.057029392219
  Total correlation energy             -1.479814612216

  CCSD total energy                 -1746.949592032817
  CCSD[T] energy                    -1747.015183995402
  CCSD-T energy                     -1747.006554943848
 !CCSD(T) total energy              -1747.006621425036

 Timing summary (sec):

 STEP                 CPU(USER)    SYS     CPU(TOT)    WALL
 Transformation          6.10      1.28      7.38     14.29
 CCSD iterations        83.41     11.93     95.34     97.70
 Triples                74.29      2.84     77.13     77.06

 Program statistics:

 Available memory in ccsd:               999998876
 Min. memory needed in ccsd:               7200102
 Max. memory used in ccsd:                 9890914
 Max. memory used in cckext:               8812147 (35 integral passes)



 **********************************************************************************************************************************
 DATASETS  * FILE   NREC   LENGTH (MB)   RECORD NAMES
              1      23      481.02       500      610      700      900      950      970     1000      129      960     1700   
                                          VAR    BASINP    GEOM    SYMINP    ZMAT    AOBASIS   BASIS     P2S    ABASIS    OPER   
                                         1101     1401     1411     1412     1650     1100     1400     1410     1200     1210   
                                          SR      EKINR    POTR     PVPR    MOLCAS      S      EKIN      POT      H0       H01  
                                         1080     1600     1380   
                                         AOSYM     SMH     JKOP   

              2       6        1.94       500      610      700     1000      520     2100   
                                          VAR    BASINP    GEOM     BASIS   MCVARS     RHF  

 PROGRAMS   *        TOTAL   CCSD(T)       RHF       INT      FILE
 CPU TIMES  *       195.52    163.87      2.07     28.66      0.36
 REAL TIME  *       228.45 SEC
 DISK USED  *         4.05 GB      
 SF USED    *       723.03 MB      
 GA USED    *         0.00 MB       (max)       0.00 MB       (current)
 **********************************************************************************************************************************


 PROGRAM * OPT (Geometry optimization)     Authors: F. Eckert and H.-J. Werner


 BFGS update of hessian

 Geometry optimization using start command=LABEL

 Geometry written to block  1 of record 700

 *** Long output written to logfile /home/ndyonker/chem/CuCN-CuNC/CN/ccsd_t/cvqz-dk/1.log ***


 Making model hessian for Z-matrix coordinates

 Quadratic Steepest Descent - Minimum Search

 ITER.   ENERGY(OLD)    ENERGY(NEW)      DE          GRADMAX     GRADNORM    GRADRMS     STEPMAX     STEPLEN     STEPRMS   CPU-time
   1 -1747.00662143 -1747.00705886    -0.00043744  0.01479623  0.01592357  0.01125966  0.03346046  0.03380591  0.01690296    951.66
   2 -1747.00705886 -1747.00741829    -0.00035943  0.01035509  0.01036059  0.00732604  0.07659646  0.07660982  0.03830491   1906.63
   3 -1747.00741829 -1747.00742458    -0.00000629  0.00161628  0.00210118  0.00148576  0.00878309  0.00886928  0.00443464   2819.40
   4 -1747.00742458 -1747.00742463    -0.00000005  0.00016283  0.00020369  0.00014403  0.00071929  0.00072984  0.00036492   3707.58
   5 -1747.00742463 -1747.00742463     0.00000000  0.00002530  0.00002574  0.00001820  0.00003028  0.00003716  0.00001858   4602.02
   6 -1747.00742463 -1747.00742463     0.00000000  0.00000091  0.00000092  0.00000065  0.00000085  0.00000115  0.00000058   5501.05

 END OF GEOMETRY OPTIMIZATION.

 Optimized variables
 MC=                  1.82548367 ANGSTROM
 NC=                  1.16351253 ANGSTROM

 **********************************************************************************************************************************

 Current geometry (xyz format, in Angstrom)

    3
 CCSD(T)/CC-PWCVQZ-DK  ENERGY=-1747.00742463
 Cu         0.0000000000        0.0000000000       -0.7122512526
 C          0.0000000000        0.0000000000        1.1132324218
 N          0.0000000000        0.0000000000        2.2767449492

 **********************************************************************************************************************************

 Geometry written to block  1 of record 700


 **********************************************************************************************************************************
 DATASETS  * FILE   NREC   LENGTH (MB)   RECORD NAMES
              1      23      481.02       500      610      700      900      950      970     1000      129      960     1700   
                                          VAR    BASINP    GEOM    SYMINP    ZMAT    AOBASIS   BASIS     P2S    ABASIS    OPER   
                                         1101     1401     1411     1412     1650     1100     1400     1410     1200     1210   
                                          SR      EKINR    POTR     PVPR    MOLCAS      S      EKIN      POT      H0       H01  
                                         1080     1600     1380   
                                         AOSYM     SMH     JKOP   

              2       7        2.53       500      610      700     1000      520     2100     5600   
                                          VAR    BASINP    GEOM     BASIS   MCVARS     RHF     GINFO   

 PROGRAMS   *        TOTAL      OPTG   CCSD(T)       RHF       INT      FILE
 CPU TIMES  *      5696.60   5501.06    163.87      2.07     28.66      0.36
 REAL TIME  *      6674.75 SEC
 DISK USED  *         9.54 GB      
 SF USED    *       723.03 MB      
 GA USED    *         0.00 MB       (max)       0.00 MB       (current)
 **********************************************************************************************************************************

   OPTG(CCSD(T))        CCSD(T)         RHF-SCF 
  -1747.00742463  -1747.00662143  -1745.52680681
 **********************************************************************************************************************************
 Variable memory released
